 Gaussian 16, Revision A.03,
 Gaussian 16:  ES64L-G16RevA.03 25-Dec-2016

 ------------------------------------------
 #B3LYP/6-31+G(d,p) OPT Freq=hpmodes Nosymm
 ------------------------------------------

 initial structure is the last point of TS2_R.log (/TS2_IRC/CalcFC_LQA_
 Forward_2.log)
 ----------------------------------------------------------------------
 Symbolic Z-matrix:
 Charge =  0 Multiplicity = 1

 SCF Done:  E(RB3LYP) =  -541.915329499     A.U. after   13 cycles
 SCF Done:  E(RB3LYP) =  -541.915330551     A.U. after    9 cycles
 SCF Done:  E(RB3LYP) =  -541.915330646     A.U. after    8 cycles
 Optimization completed.
    -- Stationary point found.

 1\1\GINC-Q78\FOpt\RB3LYP\6-31+G(d,p)\C8H12F1N1O1\GRACE\15-Apr-2019\0\\
 #B3LYP/6-31+G(d,p) OPT Freq=hpmodes Nosymm\\initial structure is the l
 ast point of TS2_R.log (/TS2_IRC/CalcFC_LQA_Forward_2.log)\\0,1\C,-0.0
 583928426,1.6070179969,1.3174084545\C,-1.2141906881,-0.0842324032,0.12
 40157785\C,-0.5401068099,-0.83366936,-1.0341818339\C,0.8905043085,-0.2
 681252267,-1.114936128\C,0.8693613871,1.3033900175,-1.1177203259\C,1.0
 037627222,2.0059287343,0.2607405612\H,-0.9939188099,2.1483387015,1.168
 2380264\H,0.29738387,1.8272998119,2.3290978556\H,1.340736749,-0.607250

 Normal termination of Gaussian 16 at Mon Apr 15 21:36:18 2019.

 ----------------------------------------------------------------------
 #N Geom=AllCheck Guess=TCheck SCRF=Check GenChk RB3LYP/6-31+G(d,p) Fre
 q
 ----------------------------------------------------------------------

 ----------------------------------------------------------------------
 initial structure is the last point of TS2_R.log (/TS2_IRC/CalcFC_LQA_
 Forward_2.log)
 ----------------------------------------------------------------------
 Charge =  0 Multiplicity = 1

                          Input orientation:
 ---------------------------------------------------------------------
 Center     Atomic      Atomic             Coordinates (Angstroms)
 Number     Number       Type             X           Y           Z
 ---------------------------------------------------------------------
      1          6           0       -0.058393    1.607018    1.317408
      2          6           0       -1.214191   -0.084232    0.124016
      3          6           0       -0.540107   -0.833669   -1.034182
      4          6           0        0.890504   -0.268125   -1.114936
      5          6           0        0.869361    1.303390   -1.117720
      6          6           0        1.003763    2.005929    0.260741
      7          1           0       -0.993919    2.148339    1.168238
      8          1           0        0.297384    1.827300    2.329098
      9          1           0        1.340737   -0.607250   -2.054403
     10          1           0        1.708964    1.643509   -1.733747
     11          1           0       -0.036880    1.656117   -1.627466
     12          1           0        2.004893    1.807047    0.660652
     13          1           0        0.956794    3.090602    0.104350
     14          1           0       -1.128711   -0.661316   -1.937958
     15          8           0       -2.296472    0.461600   -0.024965
     16          6           0        1.678148   -0.827586    0.081377
     17          1           0        1.943309   -1.872036   -0.101564
     18          1           0        2.614779   -0.275353    0.205767
     19          6           0        0.786742   -0.736652    1.355206
     20          7           0       -0.370441    0.167108    1.209626
     21          1           0        0.395918   -1.726174    1.602222
     22          1           0        1.355812   -0.393387    2.223262
     23          9           0       -0.503634   -2.229887   -0.833567
 ---------------------------------------------------------------------

 SCF Done:  E(RB3LYP) =  -541.915330646     A.U. after    1 cycles

 Alpha  occ. eigenvalues --  -24.70725 -19.14701 -14.36399 -10.30081 -10.28132
 Alpha  occ. eigenvalues --  -10.23157 -10.23155 -10.21866 -10.21013 -10.20519
 Alpha  occ. eigenvalues --  -10.20273  -1.20343  -1.05734  -0.95168  -0.83105
 Alpha  occ. eigenvalues --   -0.79313  -0.75584  -0.69039  -0.67401  -0.63747
 Alpha  occ. eigenvalues --   -0.57597  -0.54771  -0.53350  -0.51225  -0.50760
 Alpha  occ. eigenvalues --   -0.47810  -0.46163  -0.44633  -0.43721  -0.43496
 Alpha  occ. eigenvalues --   -0.42672  -0.40870  -0.40440  -0.38545  -0.38225
 Alpha  occ. eigenvalues --   -0.35993  -0.35087  -0.34667  -0.33890  -0.33475
 Alpha  occ. eigenvalues --   -0.26947  -0.24752
 Alpha virt. eigenvalues --   -0.03907  -0.00836   0.00776   0.01307   0.01940
 Alpha virt. eigenvalues --    0.03315   0.03414   0.04557   0.04668   0.05266
 Alpha virt. eigenvalues --    0.07342   0.07697   0.08055   0.08104   0.09258

 Mulliken charges:
               1
     1  C   -0.247097
     2  C    0.070819
     3  C    0.271524
     4  C    0.041167
     5  C   -0.331474
     6  C   -0.248493
     7  H    0.177256
     8  H    0.142576
     9  H    0.146382
    10  H    0.147188
    11  H    0.162246
    12  H    0.141930
    13  H    0.145977
    14  H    0.151972
    15  O   -0.420523
    16  C   -0.255305
    17  H    0.164308
    18  H    0.143120
    19  C   -0.280025
    20  N   -0.097715
    21  H    0.167921
    22  H    0.143618
    23  F   -0.337374
 Sum of Mulliken charges =  -0.00000

 Dipole moment (field-independent basis, Debye):
    X=              4.3600    Y=              1.4339    Z=             -0.0997  Tot=              4.5909
 Quadrupole moment (field-independent basis, Debye-Ang):
   XX=            -73.5785   YY=            -67.3856   ZZ=            -63.1722
   XY=              1.0620   XZ=              1.3510   YZ=             -0.8018

  Exact polarizability:  99.195  -1.732  96.291   3.350   3.301  91.725
 Approx polarizability: 148.508  -6.298 134.566   9.638   1.467 130.643

                      1                      2                      3
                      A                      A                      A
 Frequencies --    104.7076               185.1783               214.5631
 Red. masses --      6.2807                 3.1741                 2.8656
 Frc consts  --      0.0406                 0.0641                 0.0777
 IR Inten    --      3.8997                 1.1310                 2.0162

                      4                      5                      6
                      A                      A                      A
 Frequencies --    243.6088               274.9139               320.7217
 Red. masses --      3.8411                 3.0939                 2.2082
 Frc consts  --      0.1343                 0.1378                 0.1338
 IR Inten    --      2.8775                 3.9876                 0.1039

                      7                      8                      9
                      A                      A                      A
 Frequencies --    346.8391               381.5599               424.5255
 Red. masses --      4.2032                 2.2565                 5.5905
 Frc consts  --      0.2979                 0.1936                 0.5936
 IR Inten    --      6.6191                 1.2272                 1.6665

                     10                     11                     12
                      A                      A                      A
 Frequencies --    462.1009               524.8448               567.4379
 Red. masses --      4.2887                 4.4629                 3.8361
 Frc consts  --      0.5396                 0.7243                 0.7277
 IR Inten    --      2.5333                 4.1271                 3.7704

                     13                     14                     15
                      A                      A                      A
 Frequencies --    606.0186               700.3999               752.5614
 Red. masses --      2.4696                 4.2296                 2.5579
 Frc consts  --      0.5344                 1.2225                 0.8535
 IR Inten    --     19.9934                 6.1588                17.2978

                     16                     17                     18
                      A                      A                      A
 Frequencies --    787.7983               816.1659               841.7336
 Red. masses --      3.0272                 1.5029                 3.1208
 Frc consts  --      1.1069                 0.5898                 1.3027
 IR Inten    --     11.4910                17.6154                 1.8682

                     19                     20                     21
                      A                      A                      A
 Frequencies --    848.3461               882.7949               903.8304
 Red. masses --      3.7489                 1.7798                 2.9351
 Frc consts  --      1.5896                 0.8172                 1.4127
 IR Inten    --      3.3336                 1.2155                 4.3730

                     22                     23                     24
                      A                      A                      A
 Frequencies --    939.7563               972.1336              1009.4245
 Red. masses --      2.9236                 2.1176                 2.7627
 Frc consts  --      1.5213                 1.1791                 1.6585
 IR Inten    --      4.8437                 2.7959                18.2735

                     25                     26                     27
                      A                      A                      A
 Frequencies --   1017.0578              1042.2571              1073.2400
 Red. masses --      2.4356                 5.2472                 2.0554
 Frc consts  --      1.4844                 3.3584                 1.3949
 IR Inten    --     30.8301               110.3637                 6.8728

                     28                     29                     30
                      A                      A                      A
 Frequencies --   1082.5494              1109.3318              1162.3297
 Red. masses --      1.7331                 1.9716                 1.6601
 Frc consts  --      1.1966                 1.4295                 1.3214
 IR Inten    --     14.9793                 5.9879                28.6191

                     31                     32                     33
                      A                      A                      A
 Frequencies --   1187.3195              1218.7310              1229.6496
 Red. masses --      2.2116                 1.4859                 1.3854
 Frc consts  --      1.8369                 1.3003                 1.2342
 IR Inten    --     21.0370                 5.9235                 9.2360

                     34                     35                     36
                      A                      A                      A
 Frequencies --   1252.9453              1284.9780              1300.5963
 Red. masses --      1.2847                 1.3020                 1.6382
 Frc consts  --      1.1883                 1.2667                 1.6327
 IR Inten    --     11.1859                 3.5389                 4.0137

                     37                     38                     39
                      A                      A                      A
 Frequencies --   1317.4817              1340.1599              1347.7627
 Red. masses --      1.3099                 1.3122                 1.2931
 Frc consts  --      1.3396                 1.3885                 1.3839
 IR Inten    --      3.6313                 2.8165                 4.1189

                     40                     41                     42
                      A                      A                      A
 Frequencies --   1359.4038              1373.7088              1375.5996
 Red. masses --      1.2697                 1.3965                 1.3983
 Frc consts  --      1.3825                 1.5527                 1.5589
 IR Inten    --      1.9120                15.9828                15.9587

                     43                     44                     45
                      A                      A                      A
 Frequencies --   1382.3931              1393.2334              1404.6164
 Red. masses --      1.3383                 1.3555                 1.8774
 Frc consts  --      1.5068                 1.5502                 2.1824
 IR Inten    --      5.5690                 5.3038                57.8138

                     46                     47                     48
                      A                      A                      A
 Frequencies --   1490.9531              1496.4207              1502.4466
 Red. masses --      1.0818                 1.0799                 1.0804
 Frc consts  --      1.4169                 1.4247                 1.4369
 IR Inten    --      1.3996                 2.8084                11.1584

                     49                     50                     51
                      A                      A                      A
 Frequencies --   1507.9282              1523.1619              1766.7129
 Red. masses --      1.0893                 1.0885                11.2021
 Frc consts  --      1.4594                 1.4880                20.6008
 IR Inten    --     11.5918                 6.5406               309.4025

                     52                     53                     54
                      A                      A                      A
 Frequencies --   3037.1110              3041.9563              3060.3665
 Red. masses --      1.0638                 1.0632                 1.0802
 Frc consts  --      5.7813                 5.7967                 5.9608
 IR Inten    --     15.6511                17.0736                17.7059

                     55                     56                     57
                      A                      A                      A
 Frequencies --   3068.8255              3070.3842              3075.5523
 Red. masses --      1.0728                 1.0669                 1.0982
 Frc consts  --      5.9529                 5.9261                 6.1202
 IR Inten    --     22.4879                50.3108                30.7906

                     58                     59                     60
                      A                      A                      A
 Frequencies --   3080.5953              3086.1215              3107.8904
 Red. masses --      1.0651                 1.0964                 1.1031
 Frc consts  --      5.9555                 6.1524                 6.2778
 IR Inten    --     36.5380                55.3138                 6.6272

                     61                     62                     63
                      A                      A                      A
 Frequencies --   3119.8949              3129.3954              3141.7799
 Red. masses --      1.0883                 1.1067                 1.1000
 Frc consts  --      6.2415                 6.3857                 6.3975
 IR Inten    --     16.7090                23.1588                 8.4413

 - Thermochemistry -
 -------------------
 Temperature   298.150 Kelvin.  Pressure   1.00000 Atm.
 Atom     1 has atomic number  6 and mass  12.00000

 Molecular mass:   157.09029 amu.
 Principal axes and moments of inertia in atomic units:
                           1         2         3
     Eigenvalues --  1174.178501465.830491745.38897
           X            0.27189   0.95866   0.08391
           Y            0.89096  -0.21782  -0.39844
           Z            0.36369  -0.18309   0.91335
 This molecule is an asymmetric top.
 Rotational symmetry number  1.
 Warning -- assumption of classical behavior for rotation
           may cause significant error
 Rotational temperatures (Kelvin)      0.07377     0.05909     0.04962
 Rotational constants (GHZ):           1.53702     1.23121     1.03401
 Zero-point vibrational energy     518430.5 (Joules/Mol)
                                  123.90786 (Kcal/Mol)
 Warning -- explicit consideration of  13 degrees of freedom as
           vibrations may cause significant error
 Vibrational temperatures:    150.65   266.43   308.71   350.50   395.54
          (Kelvin)            461.45   499.02   548.98   610.80   664.86
                              755.13   816.42   871.93  1007.72  1082.77
                             1133.47  1174.28  1211.07  1220.58  1270.15
                             1300.41  1352.10  1398.68  1452.34  1463.32
                             1499.58  1544.15  1557.55  1596.08  1672.33
                             1708.29  1753.48  1769.19  1802.71  1848.80
                             1871.27  1895.56  1928.19  1939.13  1955.88
                             1976.46  1979.18  1988.96  2004.55  2020.93
                             2145.15  2153.02  2161.69  2169.57  2191.49
                             2541.91  4369.73  4376.70  4403.18  4415.36
                             4417.60  4425.03  4432.29  4440.24  4471.56
                             4488.83  4502.50  4520.32

 Zero-point correction=                           0.197460 (Hartree/Particle)
 Thermal correction to Energy=                    0.206337
 Thermal correction to Enthalpy=                  0.207282
 Thermal correction to Gibbs Free Energy=         0.164033
 Sum of electronic and zero-point Energies=           -541.717871
 Sum of electronic and thermal Energies=              -541.708993
 Sum of electronic and thermal Enthalpies=            -541.708049
 Sum of electronic and thermal Free Energies=         -541.751298

                     E (Thermal)             CV                S
                      KCal/Mol        Cal/Mol-Kelvin    Cal/Mol-Kelvin
 Total                  129.479             36.463             91.025
 Electronic               0.000              0.000              0.000
 Translational            0.889              2.981             41.064
 Rotational               0.889              2.981             29.487
 Vibrational            127.701             30.501             20.474
 Vibration     1          0.605              1.945              3.365
 Vibration     2          0.631              1.860              2.276
 Vibration     3          0.644              1.819              2.005
 Vibration     4          0.659              1.773              1.776
 Vibration     5          0.677              1.720              1.565
 Vibration     6          0.706              1.634              1.306
 Vibration     7          0.725              1.582              1.181
 Vibration     8          0.751              1.510              1.033
 Vibration     9          0.787              1.417              0.877
 Vibration    10          0.820              1.334              0.760
 Vibration    11          0.880              1.195              0.599
 Vibration    12          0.923              1.102              0.509
 Vibration    13          0.965              1.019              0.439

 Optimization completed.
    -- Stationary point found.

 1\1\GINC-Q78\Freq\RB3LYP\6-31+G(d,p)\C8H12F1N1O1\GRACE\15-Apr-2019\0\\
 #N Geom=AllCheck Guess=TCheck SCRF=Check GenChk RB3LYP/6-31+G(d,p) Fre
 q\\initial structure is the last point of TS2_R.log (/TS2_IRC/CalcFC_L
 QA_Forward_2.log)\\0,1\C,-0.0583928426,1.6070179969,1.3174084545\C,-1.
 2141906881,-0.0842324032,0.1240157785\C,-0.5401068099,-0.83366936,-1.0
 341818339\C,0.8905043085,-0.2681252267,-1.114936128\C,0.8693613871,1.3
 033900175,-1.1177203259\C,1.0037627222,2.0059287343,0.2607405612\H,-0.
 9939188099,2.1483387015,1.1682380264\H,0.29738387,1.8272998119,2.32909

 Normal termination of Gaussian 16 at Mon Apr 15 22:28:53 2019.
