 Gaussian 16, Revision A.03,
 Gaussian 16:  ES64L-G16RevA.03 25-Dec-2016

 ------------------------------------------
 #B3LYP/6-31+G(d,p) OPT Freq=hpmodes Nosymm
 ------------------------------------------

 initial structure is the last point of TS2_F.log (/TS2_IRC/CalcFC_LQA_
 Reverse_2.log)
 ----------------------------------------------------------------------
 Symbolic Z-matrix:
 Charge =  0 Multiplicity = 1

 SCF Done:  E(RB3LYP) =  -541.919152721     A.U. after   13 cycles
 SCF Done:  E(RB3LYP) =  -541.919153853     A.U. after    8 cycles
 SCF Done:  E(RB3LYP) =  -541.919153956     A.U. after    9 cycles
 Optimization completed.
    -- Stationary point found.

 1\1\GINC-Q80\FOpt\RB3LYP\6-31+G(d,p)\C8H12F1N1O1\GRACE\15-Apr-2019\0\\
 #B3LYP/6-31+G(d,p) OPT Freq=hpmodes Nosymm\\initial structure is the l
 ast point of TS2_F.log (/TS2_IRC/CalcFC_LQA_Reverse_2.log)\\0,1\C,-0.4
 148960652,1.8684656729,1.0711449959\C,-1.2325088986,0.641444107,0.6899
 491854\C,-0.3478158599,-0.9416079552,-0.8000271127\C,1.0344735447,-0.3
 394888448,-1.0866564807\C,0.9443810385,1.2168598742,-1.146151738\C,0.8
 726438352,2.0063106268,0.1927661339\H,-1.0842750092,2.7181723688,0.922
 7408327\H,-0.146558458,1.8612758436,2.1330510336\H,1.4411936994,-0.713

 Normal termination of Gaussian 16 at Mon Apr 15 21:36:39 2019.

 ----------------------------------------------------------------------
 #N Geom=AllCheck Guess=TCheck SCRF=Check GenChk RB3LYP/6-31+G(d,p) Fre
 q
 ----------------------------------------------------------------------

 ----------------------------------------------------------------------
 initial structure is the last point of TS2_F.log (/TS2_IRC/CalcFC_LQA_
 Reverse_2.log)
 ----------------------------------------------------------------------
 Charge =  0 Multiplicity = 1

                          Input orientation:
 ---------------------------------------------------------------------
 Center     Atomic      Atomic             Coordinates (Angstroms)
 Number     Number       Type             X           Y           Z
 ---------------------------------------------------------------------
      1          6           0       -0.414896    1.868466    1.071145
      2          6           0       -1.232509    0.641444    0.689949
      3          6           0       -0.347816   -0.941608   -0.800027
      4          6           0        1.034474   -0.339489   -1.086656
      5          6           0        0.944381    1.216860   -1.146152
      6          6           0        0.872644    2.006311    0.192766
      7          1           0       -1.084275    2.718172    0.922741
      8          1           0       -0.146558    1.861276    2.133051
      9          1           0        1.441194   -0.713411   -2.031620
     10          1           0        1.845426    1.570980   -1.660076
     11          1           0        0.100936    1.504455   -1.788591
     12          1           0        1.754840    1.758345    0.790913
     13          1           0        0.982731    3.066680   -0.058229
     14          1           0       -1.171813   -0.576403   -1.411641
     15          8           0       -2.384832    0.738335    0.304335
     16          6           0        1.825462   -0.839240    0.139084
     17          1           0        2.183754   -1.857450   -0.028591
     18          1           0        2.693634   -0.214683    0.366437
     19          6           0        0.756604   -0.815109    1.272354
     20          7           0       -0.549177   -0.598303    0.597920
     21          1           0        0.709018   -1.773156    1.796036
     22          1           0        0.934228   -0.043577    2.022444
     23          9           0       -0.303549   -2.336061   -0.959459
 ---------------------------------------------------------------------

 SCF Done:  E(RB3LYP) =  -541.919153956     A.U. after    1 cycles

 Alpha  occ. eigenvalues --  -24.69925 -19.14630 -14.36601 -10.30786 -10.30332
 Alpha  occ. eigenvalues --  -10.23429 -10.21462 -10.21460 -10.21174 -10.21160
 Alpha  occ. eigenvalues --  -10.20517  -1.20020  -1.05943  -0.96025  -0.82319
 Alpha  occ. eigenvalues --   -0.80041  -0.75829  -0.70271  -0.66348  -0.63085
 Alpha  occ. eigenvalues --   -0.58138  -0.56792  -0.52688  -0.51726  -0.50397
 Alpha  occ. eigenvalues --   -0.47293  -0.46332  -0.45104  -0.44597  -0.42911
 Alpha  occ. eigenvalues --   -0.41813  -0.41073  -0.40492  -0.38744  -0.36911
 Alpha  occ. eigenvalues --   -0.36369  -0.36079  -0.35068  -0.33973  -0.33248
 Alpha  occ. eigenvalues --   -0.26940  -0.26092
 Alpha virt. eigenvalues --   -0.02673  -0.00913   0.00579   0.01294   0.01926
 Alpha virt. eigenvalues --    0.03128   0.03357   0.03640   0.04668   0.05375
 Alpha virt. eigenvalues --    0.07209   0.07563   0.07949   0.08582   0.08995

 Mulliken charges:
               1
     1  C   -0.175853
     2  C    0.129323
     3  C    0.136302
     4  C    0.085648
     5  C   -0.347483
     6  C   -0.207732
     7  H    0.179182
     8  H    0.162389
     9  H    0.145350
    10  H    0.146876
    11  H    0.153267
    12  H    0.139569
    13  H    0.150646
    14  H    0.158611
    15  O   -0.409287
    16  C   -0.395834
    17  H    0.167003
    18  H    0.145970
    19  C   -0.204745
    20  N   -0.082018
    21  H    0.155822
    22  H    0.131864
    23  F   -0.364868
 Sum of Mulliken charges =  -0.00000

 Dipole moment (field-independent basis, Debye):
    X=              4.5248    Y=              2.2944    Z=              0.5063  Tot=              5.0985
 Quadrupole moment (field-independent basis, Debye-Ang):
   XX=            -74.4559   YY=            -68.9540   ZZ=            -62.0754
   XY=              0.4381   XZ=              1.3112   YZ=             -1.0124

  Exact polarizability:  99.911  -5.404  99.579  -0.740   3.278  88.148
 Approx polarizability: 147.142  -8.359 136.653   5.492   2.656 128.335

                      1                      2                      3
                      A                      A                      A
 Frequencies --     91.7540               180.9383               193.5844
 Red. masses --      4.5974                 2.9566                 4.8117
 Frc consts  --      0.0228                 0.0570                 0.1062
 IR Inten    --      3.2705                 0.5532                 4.3747

                      4                      5                      6
                      A                      A                      A
 Frequencies --    260.8631               283.6230               290.6500
 Red. masses --      2.3475                 3.5984                 2.4630
 Frc consts  --      0.0941                 0.1705                 0.1226
 IR Inten    --      0.7321                 1.7780                 0.0654

                      7                      8                      9
                      A                      A                      A
 Frequencies --    336.5797               386.6595               407.3214
 Red. masses --      2.5020                 4.4069                 3.9520
 Frc consts  --      0.1670                 0.3882                 0.3863
 IR Inten    --      0.3402                 1.3414                 3.6427

                     10                     11                     12
                      A                      A                      A
 Frequencies --    504.6971               507.8453               554.7968
 Red. masses --      3.7458                 4.4580                 2.7136
 Frc consts  --      0.5621                 0.6774                 0.4921
 IR Inten    --      3.6946                 1.7924                 4.8907

                     13                     14                     15
                      A                      A                      A
 Frequencies --    656.6126               694.6171               756.6927
 Red. masses --      4.7277                 2.6002                 2.2653
 Frc consts  --      1.2009                 0.7392                 0.7642
 IR Inten    --      8.0162                14.5771                 3.0266

                     16                     17                     18
                      A                      A                      A
 Frequencies --    776.7694               817.9028               841.8503
 Red. masses --      2.6560                 4.0463                 1.8028
 Frc consts  --      0.9442                 1.5948                 0.7528
 IR Inten    --      5.8171                 7.2266                31.3986

                     19                     20                     21
                      A                      A                      A
 Frequencies --    868.9048               885.3540               898.2263
 Red. masses --      1.8385                 2.6973                 2.8222
 Frc consts  --      0.8178                 1.2457                 1.3415
 IR Inten    --      2.0502                 3.3315                 2.1435

                     22                     23                     24
                      A                      A                      A
 Frequencies --    940.7390               965.5766               993.1420
 Red. masses --      2.6021                 2.6180                 2.1480
 Frc consts  --      1.3568                 1.4381                 1.2483
 IR Inten    --      6.5153                27.8239                50.0746

                     25                     26                     27
                      A                      A                      A
 Frequencies --   1009.5792              1032.0481              1036.1094
 Red. masses --      2.4244                 4.5864                 2.1531
 Frc consts  --      1.4559                 2.8782                 1.3618
 IR Inten    --     41.2845               119.7286                10.4180

                     28                     29                     30
                      A                      A                      A
 Frequencies --   1083.0833              1110.6713              1147.2151
 Red. masses --      1.9910                 2.2187                 1.6498
 Frc consts  --      1.3761                 1.6126                 1.2793
 IR Inten    --     35.8216                 6.7864                31.2060

                     31                     32                     33
                      A                      A                      A
 Frequencies --   1169.9879              1187.5823              1222.4315
 Red. masses --      4.3766                 1.2707                 1.3065
 Frc consts  --      3.5298                 1.0559                 1.1503
 IR Inten    --     35.4663                46.2066                 2.2575

                     34                     35                     36
                      A                      A                      A
 Frequencies --   1236.3721              1248.2553              1279.7667
 Red. masses --      1.3136                 1.2568                 1.3556
 Frc consts  --      1.1830                 1.1538                 1.3081
 IR Inten    --     16.6866                 7.9572                15.3188

                     37                     38                     39
                      A                      A                      A
 Frequencies --   1302.3833              1323.6500              1332.5080
 Red. masses --      1.4070                 1.3796                 1.4230
 Frc consts  --      1.4061                 1.4241                 1.4886
 IR Inten    --     10.2090                13.4527                 4.9941

                     40                     41                     42
                      A                      A                      A
 Frequencies --   1339.4264              1351.4536              1358.2561
 Red. masses --      1.6099                 1.3880                 1.3895
 Frc consts  --      1.7017                 1.4936                 1.5104
 IR Inten    --     51.7811                 1.0159                 6.7002

                     43                     44                     45
                      A                      A                      A
 Frequencies --   1388.5672              1390.8355              1402.5772
 Red. masses --      1.4546                 1.4003                 1.2515
 Frc consts  --      1.6524                 1.5959                 1.4505
 IR Inten    --     27.8938                 2.8767                47.1483

                     46                     47                     48
                      A                      A                      A
 Frequencies --   1483.3180              1491.1495              1502.6978
 Red. masses --      1.0746                 1.0817                 1.0936
 Frc consts  --      1.3931                 1.4171                 1.4550
 IR Inten    --      3.3199                 5.9887                13.4618

                     49                     50                     51
                      A                      A                      A
 Frequencies --   1508.9727              1533.2173              1766.2156
 Red. masses --      1.0797                 1.0876                11.3989
 Frc consts  --      1.4485                 1.5064                20.9508
 IR Inten    --      5.6500                10.6436               311.0286

                     52                     53                     54
                      A                      A                      A
 Frequencies --   3030.8141              3054.8476              3067.9991
 Red. masses --      1.0636                 1.0659                 1.0711
 Frc consts  --      5.7566                 5.8609                 5.9398
 IR Inten    --     22.7354                11.4619                 8.9019

                     55                     56                     57
                      A                      A                      A
 Frequencies --   3073.8322              3078.5095              3086.7045
 Red. masses --      1.0909                 1.0667                 1.0740
 Frc consts  --      6.0728                 5.9563                 6.0289
 IR Inten    --     35.7735                 4.7057                56.3612

                     58                     59                     60
                      A                      A                      A
 Frequencies --   3089.7252              3092.8016              3121.4966
 Red. masses --      1.0897                 1.0878                 1.1032
 Frc consts  --      6.1289                 6.1304                 6.3335
 IR Inten    --      4.2238                51.5400                 4.1948

                     61                     62                     63
                      A                      A                      A
 Frequencies --   3128.6550              3143.1434              3159.9725
 Red. masses --      1.0994                 1.1020                 1.0894
 Frc consts  --      6.3404                 6.4145                 6.4090
 IR Inten    --     21.8063                23.9012                 6.0009

 - Thermochemistry -
 -------------------
 Temperature   298.150 Kelvin.  Pressure   1.00000 Atm.
 Atom     1 has atomic number  6 and mass  12.00000

 Molecular mass:   157.09029 amu.
 Principal axes and moments of inertia in atomic units:
                           1         2         3
     Eigenvalues --  1152.798431518.408901938.84328
           X           -0.29521   0.93176   0.21138
           Y            0.89923   0.34572  -0.26806
           Z            0.32285  -0.11095   0.93993
 This molecule is an asymmetric top.
 Rotational symmetry number  1.
 Warning -- assumption of classical behavior for rotation
           may cause significant error
 Rotational temperatures (Kelvin)      0.07513     0.05704     0.04467
 Rotational constants (GHZ):           1.56553     1.18857     0.93083
 Zero-point vibrational energy     517160.8 (Joules/Mol)
                                  123.60439 (Kcal/Mol)
 Warning -- explicit consideration of  12 degrees of freedom as
           vibrations may cause significant error
 Vibrational temperatures:    132.01   260.33   278.52   375.32   408.07
          (Kelvin)            418.18   484.26   556.32   586.04   726.15
                              730.68   798.23   944.72   999.40  1088.71
                             1117.60  1176.78  1211.23  1250.16  1273.83
                             1292.35  1353.51  1389.25  1428.91  1452.56
                             1484.89  1490.73  1558.32  1598.01  1650.59
                             1683.35  1708.67  1758.81  1778.86  1795.96
                             1841.30  1873.84  1904.44  1917.18  1927.14
                             1944.44  1954.23  1997.84  2001.10  2018.00
                             2134.16  2145.43  2162.05  2171.08  2205.96
                             2541.19  4360.67  4395.24  4414.17  4422.56
                             4429.29  4441.08  4445.43  4449.85  4491.14
                             4501.44  4522.28  4546.50

 Zero-point correction=                           0.196976 (Hartree/Particle)
 Thermal correction to Energy=                    0.205926
 Thermal correction to Enthalpy=                  0.206870
 Thermal correction to Gibbs Free Energy=         0.163327
 Sum of electronic and zero-point Energies=           -541.722178
 Sum of electronic and thermal Energies=              -541.713228
 Sum of electronic and thermal Enthalpies=            -541.712284
 Sum of electronic and thermal Free Energies=         -541.755827

                     E (Thermal)             CV                S
                      KCal/Mol        Cal/Mol-Kelvin    Cal/Mol-Kelvin
 Total                  129.220             36.637             91.644
 Electronic               0.000              0.000              0.000
 Translational            0.889              2.981             41.064
 Rotational               0.889              2.981             29.608
 Vibrational            127.443             30.675             20.972
 Vibration     1          0.602              1.955              3.622
 Vibration     2          0.630              1.866              2.319
 Vibration     3          0.635              1.849              2.193
 Vibration     4          0.669              1.744              1.656
 Vibration     5          0.682              1.704              1.512
 Vibration     6          0.687              1.691              1.470
 Vibration     7          0.717              1.602              1.228
 Vibration     8          0.755              1.499              1.013
 Vibration     9          0.772              1.454              0.936
 Vibration    10          0.860              1.240              0.646
 Vibration    11          0.863              1.233              0.639
 Vibration    12          0.910              1.129              0.534

                           ! Non-Optimized Parameters !

 1\1\GINC-Q80\Freq\RB3LYP\6-31+G(d,p)\C8H12F1N1O1\GRACE\15-Apr-2019\0\\
 #N Geom=AllCheck Guess=TCheck SCRF=Check GenChk RB3LYP/6-31+G(d,p) Fre
 q\\initial structure is the last point of TS2_F.log (/TS2_IRC/CalcFC_L
 QA_Reverse_2.log)\\0,1\C,-0.4148960652,1.8684656729,1.0711449959\C,-1.
 2325088986,0.641444107,0.6899491854\C,-0.3478158599,-0.9416079552,-0.8
 000271127\C,1.0344735447,-0.3394888448,-1.0866564807\C,0.9443810385,1.
 2168598742,-1.146151738\C,0.8726438352,2.0063106268,0.1927661339\H,-1.
 0842750092,2.7181723688,0.9227408327\H,-0.146558458,1.8612758436,2.133

 Normal termination of Gaussian 16 at Mon Apr 15 22:28:53 2019.
