 Gaussian 16, Revision A.03,
 Gaussian 16:  ES64L-G16RevA.03 25-Dec-2016

 ------------------------------------------
 #B3LYP/6-31+G(d,p) OPT Freq=hpmodes Nosymm
 ------------------------------------------

 initial structure is the last point of TS1_R.log (/TS1_IRC/CalcFC_LQA_
 Forward_10.log)
 ----------------------------------------------------------------------
 Symbolic Z-matrix:
 Charge =  0 Multiplicity = 1

 SCF Done:  E(RB3LYP) =  -541.898941945     A.U. after   13 cycles
 SCF Done:  E(RB3LYP) =  -541.899043245     A.U. after   11 cycles
 SCF Done:  E(RB3LYP) =  -541.899033701     A.U. after   11 cycles
 SCF Done:  E(RB3LYP) =  -541.899039644     A.U. after   11 cycles
 SCF Done:  E(RB3LYP) =  -541.899083972     A.U. after   11 cycles
 SCF Done:  E(RB3LYP) =  -541.899094065     A.U. after   10 cycles
 SCF Done:  E(RB3LYP) =  -541.899095623     A.U. after   10 cycles
 SCF Done:  E(RB3LYP) =  -541.899095815     A.U. after   10 cycles
 SCF Done:  E(RB3LYP) =  -541.899096812     A.U. after    9 cycles
 SCF Done:  E(RB3LYP) =  -541.899097831     A.U. after    9 cycles
 Optimization completed.
    -- Stationary point found.

 1\1\GINC-Q56\FOpt\RB3LYP\6-31+G(d,p)\C8H12F1N1O1\GRACE\16-Apr-2019\0\\
 #B3LYP/6-31+G(d,p) OPT Freq=hpmodes Nosymm\\initial structure is the l
 ast point of TS1_R.log (/TS1_IRC/CalcFC_LQA_Forward_10.log)\\0,1\C,-0.
 9094061349,1.9314262538,-0.0895872373\C,-1.418407518,0.500017496,-0.19
 20243722\C,-0.6256364355,-0.3573902833,-1.1839039996\C,0.8996528708,-0
 .3309461534,-0.9628006756\C,1.3790136717,1.1384738941,-0.9134736657\C,
 0.6188130561,2.0156100311,0.0974768295\H,-1.1913465889,2.4366534255,-1
 .0265976109\H,-1.4508277842,2.4261561275,0.721088785\H,1.3475198191,-0

 Normal termination of Gaussian 16 at Tue Apr 16 16:22:11 2019.

 ----------------------------------------------------------------------
 #N Geom=AllCheck Guess=TCheck SCRF=Check GenChk RB3LYP/6-31+G(d,p) Fre
 q
 ----------------------------------------------------------------------

 ----------------------------------------------------------------------
 initial structure is the last point of TS1_R.log (/TS1_IRC/CalcFC_LQA_
 Forward_10.log)
 ----------------------------------------------------------------------
 Charge =  0 Multiplicity = 1

                          Input orientation:
 ---------------------------------------------------------------------
 Center     Atomic      Atomic             Coordinates (Angstroms)
 Number     Number       Type             X           Y           Z
 ---------------------------------------------------------------------
      1          6           0       -0.909406    1.931426   -0.089587
      2          6           0       -1.418408    0.500017   -0.192024
      3          6           0       -0.625636   -0.357390   -1.183904
      4          6           0        0.899653   -0.330946   -0.962801
      5          6           0        1.379014    1.138474   -0.913474
      6          6           0        0.618813    2.015610    0.097477
      7          1           0       -1.191347    2.436653   -1.026598
      8          1           0       -1.450828    2.426156    0.721089
      9          1           0        1.347520   -0.800712   -1.848784
     10          1           0        2.453571    1.157447   -0.693406
     11          1           0        1.266480    1.571041   -1.917762
     12          1           0        0.863266    1.706974    1.116286
     13          1           0        0.940760    3.058153   -0.009817
     14          1           0       -0.834990    0.058705   -2.181582
     15          8           0       -2.409044    0.093685    0.377082
     16          6           0        1.347740   -1.209942    0.220567
     17          1           0        0.925825   -2.209553    0.062602
     18          1           0        2.446901   -1.305488    0.200663
     19          6           0        1.618240   -0.878619    2.523894
     20          7           0        0.864386   -0.743656    1.512806
     21          1           0        2.631555   -1.306996    2.473019
     22          1           0        1.258621   -0.562721    3.503979
     23          9           0       -1.094261   -1.669043   -1.195628
 ---------------------------------------------------------------------

 SCF Done:  E(RB3LYP) =  -541.899097831     A.U. after    1 cycles

 Alpha  occ. eigenvalues --  -24.69915 -19.14854 -14.35476 -10.28170 -10.27933
 Alpha  occ. eigenvalues --  -10.24193 -10.22819 -10.21891 -10.20736 -10.20220
 Alpha  occ. eigenvalues --  -10.20085  -1.19988  -1.04564  -0.93937  -0.84811
 Alpha  occ. eigenvalues --   -0.78088  -0.74009  -0.71390  -0.63844  -0.61208
 Alpha  occ. eigenvalues --   -0.58272  -0.55084  -0.51326  -0.50448  -0.49352
 Alpha  occ. eigenvalues --   -0.48217  -0.47201  -0.45741  -0.44246  -0.43590
 Alpha  occ. eigenvalues --   -0.41644  -0.40728  -0.39131  -0.38972  -0.36879
 Alpha  occ. eigenvalues --   -0.36256  -0.35163  -0.34024  -0.32867  -0.30926
 Alpha  occ. eigenvalues --   -0.27002  -0.24927
 Alpha virt. eigenvalues --   -0.03980  -0.02968  -0.00316   0.00988   0.01271
 Alpha virt. eigenvalues --    0.01936   0.03345   0.03923   0.04468   0.04992
 Alpha virt. eigenvalues --    0.05222   0.06283   0.07056   0.07872   0.08275

 Mulliken charges:
               1
     1  C   -0.355558
     2  C    0.301619
     3  C    0.094473
     4  C    0.189638
     5  C   -0.469127
     6  C   -0.134717
     7  H    0.161346
     8  H    0.170644
     9  H    0.142669
    10  H    0.140730
    11  H    0.144626
    12  H    0.170367
    13  H    0.137985
    14  H    0.147936
    15  O   -0.402727
    16  C   -0.449381
    17  H    0.183013
    18  H    0.118955
    19  C   -0.078202
    20  N   -0.130198
    21  H    0.108787
    22  H    0.136750
    23  F   -0.329626
 Sum of Mulliken charges =   0.00000

 Dipole moment (field-independent basis, Debye):
    X=              4.9477    Y=              2.1065    Z=             -0.8619  Tot=              5.4461
 Quadrupole moment (field-independent basis, Debye-Ang):
   XX=            -72.1180   YY=            -65.3785   ZZ=            -60.8089
   XY=             -5.4572   XZ=              4.6702   YZ=             -3.0102

  Exact polarizability: 104.464  -3.226  95.611   2.972  -1.645 104.139
 Approx polarizability: 148.602   1.480 129.502   0.887  -1.498 149.092

                      1                      2                      3
                      A                      A                      A
 Frequencies --     57.4981                81.7989               101.0967
 Red. masses --      3.7376                 5.3719                 3.8042
 Frc consts  --      0.0073                 0.0212                 0.0229
 IR Inten    --      0.3422                 0.9869                 4.7324

                      4                      5                      6
                      A                      A                      A
 Frequencies --    124.1870               198.5874               247.0075
 Red. masses --      3.4459                 3.4459                 2.5202
 Frc consts  --      0.0313                 0.0801                 0.0906
 IR Inten    --      6.9586                 4.7056                 2.0172

                      7                      8                      9
                      A                      A                      A
 Frequencies --    269.2930               282.3412               361.0585
 Red. masses --      3.4160                 8.6003                 2.2754
 Frc consts  --      0.1460                 0.4039                 0.1748
 IR Inten    --      7.5395                 0.8916                 2.6146

                     10                     11                     12
                      A                      A                      A
 Frequencies --    383.6315               418.0250               455.0757
 Red. masses --      4.7243                 2.3961                 2.9904
 Frc consts  --      0.4097                 0.2467                 0.3649
 IR Inten    --      0.1187                 7.2387                 7.1553

                     13                     14                     15
                      A                      A                      A
 Frequencies --    510.0764               590.2726               604.1555
 Red. masses --      2.9888                 3.9538                 3.2304
 Frc consts  --      0.4582                 0.8116                 0.6947
 IR Inten    --      4.6705                 9.7426                 3.8768

                     16                     17                     18
                      A                      A                      A
 Frequencies --    671.6257               696.6773               814.6574
 Red. masses --      1.3059                 3.0724                 2.3078
 Frc consts  --      0.3471                 0.8786                 0.9024
 IR Inten    --      3.1839                 2.5563                12.4513

                     19                     20                     21
                      A                      A                      A
 Frequencies --    822.8905               857.8866               876.3228
 Red. masses --      2.1886                 2.0926                 2.6347
 Frc consts  --      0.8732                 0.9074                 1.1921
 IR Inten    --      2.4203                12.2258                 1.8521

                     22                     23                     24
                      A                      A                      A
 Frequencies --    892.7802               960.6139               977.1908
 Red. masses --      2.3267                 2.0243                 2.5897
 Frc consts  --      1.0927                 1.1006                 1.4570
 IR Inten    --     18.5968                 5.2269                11.1176

                     25                     26                     27
                      A                      A                      A
 Frequencies --   1031.8051              1060.1715              1064.6601
 Red. masses --      2.0408                 1.3620                 2.0116
 Frc consts  --      1.2801                 0.9020                 1.3435
 IR Inten    --      4.1753                17.6083                 0.6198

                     28                     29                     30
                      A                      A                      A
 Frequencies --   1075.6637              1097.4887              1115.5104
 Red. masses --      2.2263                 1.9028                 2.1784
 Frc consts  --      1.5177                 1.3504                 1.5971
 IR Inten    --     52.6110                25.7427                34.4664

                     31                     32                     33
                      A                      A                      A
 Frequencies --   1155.1492              1180.9512              1215.8979
 Red. masses --      2.5481                 1.5356                 1.4346
 Frc consts  --      2.0033                 1.2618                 1.2496
 IR Inten    --      5.4890                 6.4532                 8.8645

                     34                     35                     36
                      A                      A                      A
 Frequencies --   1244.4290              1269.3498              1277.3357
 Red. masses --      1.4201                 1.3211                 1.2495
 Frc consts  --      1.2957                 1.2541                 1.2011
 IR Inten    --      5.1509                 8.1882                 0.6035

                     37                     38                     39
                      A                      A                      A
 Frequencies --   1294.6801              1333.2742              1348.5515
 Red. masses --      1.3994                 1.4151                 1.3635
 Frc consts  --      1.3820                 1.4821                 1.4610
 IR Inten    --      3.7557                 4.0138                 3.6768

                     40                     41                     42
                      A                      A                      A
 Frequencies --   1363.6387              1374.5410              1386.5778
 Red. masses --      1.4687                 1.4050                 1.4735
 Frc consts  --      1.6090                 1.5640                 1.6691
 IR Inten    --      2.3869                 4.1456                 4.7488

                     43                     44                     45
                      A                      A                      A
 Frequencies --   1399.8673              1410.5767              1469.7849
 Red. masses --      1.4189                 1.3887                 1.0867
 Frc consts  --      1.6382                 1.6280                 1.3832
 IR Inten    --      0.9797                 4.3153                 5.9942

                     46                     47                     48
                      A                      A                      A
 Frequencies --   1473.8592              1493.7302              1501.1257
 Red. masses --      1.0819                 1.0818                 1.1469
 Frc consts  --      1.3847                 1.4221                 1.5227
 IR Inten    --     15.0156                 5.6994                13.1454

                     49                     50                     51
                      A                      A                      A
 Frequencies --   1504.3375              1739.1888              1816.2486
 Red. masses --      1.1056                 6.3966                12.0572
 Frc consts  --      1.4741                11.3996                23.4340
 IR Inten    --     12.3343                29.8066               205.2771

                     52                     53                     54
                      A                      A                      A
 Frequencies --   2969.3240              3000.4053              3006.1984
 Red. masses --      1.0699                 1.0651                 1.0750
 Frc consts  --      5.5577                 5.6495                 5.7241
 IR Inten    --     43.0330                76.5463                 2.5711

                     55                     56                     57
                      A                      A                      A
 Frequencies --   3014.9813              3016.9794              3037.9033
 Red. masses --      1.0755                 1.0688                 1.0831
 Frc consts  --      5.7602                 5.7318                 5.8895
 IR Inten    --     24.0631                29.2586                57.6621

                     58                     59                     60
                      A                      A                      A
 Frequencies --   3052.3643              3065.3803              3073.8341
 Red. masses --      1.0705                 1.0967                 1.0912
 Frc consts  --      5.8762                 6.0718                 6.0746
 IR Inten    --     41.3619                37.2034                 5.5632

                     61                     62                     63
                      A                      A                      A
 Frequencies --   3111.8294              3124.5262              3155.0499
 Red. masses --      1.0928                 1.0956                 1.1038
 Frc consts  --      6.2349                 6.3021                 6.4736
 IR Inten    --     10.9414                22.0834                22.7644

 - Thermochemistry -
 -------------------
 Temperature   298.150 Kelvin.  Pressure   1.00000 Atm.
 Atom     1 has atomic number  6 and mass  12.00000

 Molecular mass:   157.09029 amu.
 Principal axes and moments of inertia in atomic units:
                           1         2         3
     Eigenvalues --  1413.359331797.100282053.16118
           X            0.81655   0.25122  -0.51975
           Y           -0.24904   0.96555   0.07546
           Z            0.52080   0.06782   0.85098
 This molecule is an asymmetric top.
 Rotational symmetry number  1.
 Warning -- assumption of classical behavior for rotation
           may cause significant error
 Rotational temperatures (Kelvin)      0.06128     0.04820     0.04219
 Rotational constants (GHZ):           1.27692     1.00425     0.87901
 Zero-point vibrational energy     505912.2 (Joules/Mol)
                                  120.91593 (Kcal/Mol)
 Warning -- explicit consideration of  15 degrees of freedom as
           vibrations may cause significant error
 Vibrational temperatures:     82.73   117.69   145.46   178.68   285.72
          (Kelvin)            355.39   387.45   406.23   519.48   551.96
                              601.44   654.75   733.89   849.27   869.24
                              966.32  1002.36  1172.11  1183.96  1234.31
                             1260.83  1284.51  1382.11  1405.96  1484.54
                             1525.35  1531.81  1547.64  1579.04  1604.97
                             1662.00  1699.13  1749.41  1790.46  1826.31
                             1837.80  1862.76  1918.28  1940.26  1961.97
                             1977.66  1994.98  2014.10  2029.51  2114.69
                             2120.55  2149.14  2159.79  2164.41  2502.30
                             2613.18  4272.20  4316.91  4325.25  4337.89
                             4340.76  4370.87  4391.67  4410.40  4422.56
                             4477.23  4495.50  4539.41

 Zero-point correction=                           0.192692 (Hartree/Particle)
 Thermal correction to Energy=                    0.203262
 Thermal correction to Enthalpy=                  0.204206
 Thermal correction to Gibbs Free Energy=         0.156250
 Sum of electronic and zero-point Energies=           -541.706406
 Sum of electronic and thermal Energies=              -541.695836
 Sum of electronic and thermal Enthalpies=            -541.694892
 Sum of electronic and thermal Free Energies=         -541.742848

                     E (Thermal)             CV                S
                      KCal/Mol        Cal/Mol-Kelvin    Cal/Mol-Kelvin
 Total                  127.549             39.733            100.933
 Electronic               0.000              0.000              0.000
 Translational            0.889              2.981             41.064
 Rotational               0.889              2.981             30.035
 Vibrational            125.771             33.771             29.834
 Vibration     1          0.596              1.975              4.541
 Vibration     2          0.600              1.962              3.847
 Vibration     3          0.604              1.948              3.433
 Vibration     4          0.610              1.929              3.034
 Vibration     5          0.637              1.842              2.146
 Vibration     6          0.661              1.768              1.752
 Vibration     7          0.674              1.730              1.601
 Vibration     8          0.681              1.706              1.519
 Vibration     9          0.735              1.552              1.118
 Vibration    10          0.753              1.505              1.025
 Vibration    11          0.781              1.431              0.899
 Vibration    12          0.813              1.350              0.781
 Vibration    13          0.865              1.228              0.633
 Vibration    14          0.948              1.053              0.467
 Vibration    15          0.963              1.023              0.443

                           ! Non-Optimized Parameters !

 1\1\GINC-Q56\Freq\RB3LYP\6-31+G(d,p)\C8H12F1N1O1\GRACE\16-Apr-2019\0\\
 #N Geom=AllCheck Guess=TCheck SCRF=Check GenChk RB3LYP/6-31+G(d,p) Fre
 q\\initial structure is the last point of TS1_R.log (/TS1_IRC/CalcFC_L
 QA_Forward_10.log)\\0,1\C,-0.9094061349,1.9314262538,-0.0895872373\C,-
 1.418407518,0.500017496,-0.1920243722\C,-0.6256364355,-0.3573902833,-1
 .1839039996\C,0.8996528708,-0.3309461534,-0.9628006756\C,1.3790136717,
 1.1384738941,-0.9134736657\C,0.6188130561,2.0156100311,0.0974768295\H,
 -1.1913465889,2.4366534255,-1.0265976109\H,-1.4508277842,2.4261561275,

 Normal termination of Gaussian 16 at Tue Apr 16 17:34:46 2019.
