 Gaussian 16, Revision A.03,
 Gaussian 16:  ES64L-G16RevA.03 25-Dec-2016

 ------------------------------
 # B3LYP/6-31G(d,p) NoSymm Scan
 ------------------------------

 ----------
 scan 2DPES
 ----------
 Symbolic Z-matrix:
 Charge =  0 Multiplicity = 2

 SCF Done:  E(UB3LYP) =  -1.38483572573     A.U. after    9 cycles

 Alpha  occ. eigenvalues --   -0.76784  -0.13255
 Alpha virt. eigenvalues --    0.19265   0.57618   0.70788   1.42110   1.42110
 Alpha virt. eigenvalues --    1.62563   2.20173   2.20173   3.10891   3.51336
 Alpha virt. eigenvalues --    3.51336   6.61290   7.82192
  Beta  occ. eigenvalues --   -0.71816
  Beta virt. eigenvalues --    0.01992   0.24116   0.58583   0.79258   1.45318
  Beta virt. eigenvalues --    1.45318   1.71119   2.27632   2.27632   3.18575
  Beta virt. eigenvalues --    3.56247   3.56247   6.67906   7.88514

 Mulliken charges and spin densities:
               1          2
     1  H   -0.044322   0.566805
     2  H    0.088644  -0.133610
     3  H   -0.044322   0.566805
 Sum of Mulliken charges =  -0.00000   1.00000

 Dipole moment (field-independent basis, Debye):
    X=              0.0000    Y=             -0.0000    Z=             -0.0000  Tot=              0.0000
 Quadrupole moment (field-independent basis, Debye-Ang):
   XX=             -2.5846   YY=             -2.5846   ZZ=             -4.3792
   XY=             -0.0000   XZ=              0.0000   YZ=             -0.0000

 SCF Done:  E(UB3LYP) =  -1.46606795422     A.U. after   11 cycles
 SCF Done:  E(UB3LYP) =  -1.51253996271     A.U. after   11 cycles
 SCF Done:  E(UB3LYP) =  -1.54088224667     A.U. after    9 cycles
 SCF Done:  E(UB3LYP) =  -1.55917991393     A.U. after    9 cycles
 SCF Done:  E(UB3LYP) =  -1.57159936566     A.U. after    9 cycles
 SCF Done:  E(UB3LYP) =  -1.58038861512     A.U. after    9 cycles
 SCF Done:  E(UB3LYP) =  -1.58681440559     A.U. after    9 cycles
 SCF Done:  E(UB3LYP) =  -1.59162370034     A.U. after    9 cycles
 SCF Done:  E(UB3LYP) =  -1.59527628808     A.U. after    9 cycles
 SCF Done:  E(UB3LYP) =  -1.51435545109     A.U. after    8 cycles
 SCF Done:  E(UB3LYP) =  -1.51147544202     A.U. after    7 cycles
 SCF Done:  E(UB3LYP) =  -1.50929760879     A.U. after    8 cycles
 SCF Done:  E(UB3LYP) =  -1.50764430306     A.U. after    7 cycles
 SCF Done:  E(UB3LYP) =  -1.50638271157     A.U. after    7 cycles
 SCF Done:  E(UB3LYP) =  -1.50541461634     A.U. after    8 cycles
 SCF Done:  E(UB3LYP) =  -1.50466762163     A.U. after    8 cycles
 SCF Done:  E(UB3LYP) =  -1.50408830637     A.U. after    7 cycles
 SCF Done:  E(UB3LYP) =  -1.50363711680     A.U. after    7 cycles

                         Z-Matrix orientation:
 ---------------------------------------------------------------------
 Center     Atomic      Atomic             Coordinates (Angstroms)
 Number     Number       Type             X           Y           Z
 ---------------------------------------------------------------------
      1          1           0        0.000000    0.000000    0.000000
      2          1           0        0.000000    0.000000    3.000000
      3          1           0        0.000000    0.000000    6.000000
 ---------------------------------------------------------------------

 SCF Done:  E(UB3LYP) =  -1.50328444200     A.U. after    7 cycles
 Normal termination of Gaussian 16 at Sat Feb 29 22:06:49 2020.
