 Gaussian 16, Revision A.03,
 Gaussian 16:  ES64L-G16RevA.03 25-Dec-2016

 -------------------------------
 # UHF/6-31G(d) Nosymm Guess=mix
 -------------------------------

 ------------
 ground state
 ------------
 Symbolic Z-matrix:
 Charge =  0 Multiplicity = 1

                          Input orientation:
 ---------------------------------------------------------------------
 Center     Atomic      Atomic             Coordinates (Angstroms)
 Number     Number       Type             X           Y           Z
 ---------------------------------------------------------------------
      1          1           0        0.000000    0.000000    0.000000
      2          1           0        0.000000    0.000000    2.300000
 ---------------------------------------------------------------------

 SCF Done:  E(UHF) = -0.998200817640     A.U. after    7 cycles

 Alpha  occ. eigenvalues --   -0.49753
 Alpha virt. eigenvalues --    0.09885   0.93342   1.13465
  Beta  occ. eigenvalues --   -0.49753
  Beta virt. eigenvalues --    0.09885   0.93342   1.13465

 Mulliken charges and spin densities:
               1          2
     1  H   -0.000000   0.988302
     2  H    0.000000  -0.988302
 Sum of Mulliken charges =  -0.00000   0.00000

 Dipole moment (field-independent basis, Debye):
    X=              0.0000    Y=              0.0000    Z=              0.0000  Tot=              0.0000
 Quadrupole moment (field-independent basis, Debye-Ang):
   XX=             -2.5832   YY=             -2.5832   ZZ=             -2.4764
   XY=              0.0000   XZ=              0.0000   YZ=              0.0000

 Normal termination of Gaussian 16 at Sun Sep 27 22:50:47 2020.
