 Gaussian 16, Revision A.03,
 Gaussian 16:  ES64L-G16RevA.03 25-Dec-2016

 -------------------------------
 # UHF/6-31G(d) Nosymm Guess=mix
 -------------------------------

 ------------
 ground state
 ------------
 Symbolic Z-matrix:
 Charge =  0 Multiplicity = 1

                          Input orientation:
 ---------------------------------------------------------------------
 Center     Atomic      Atomic             Coordinates (Angstroms)
 Number     Number       Type             X           Y           Z
 ---------------------------------------------------------------------
      1          1           0        0.000000    0.000000    0.000000
      2          1           0        0.000000    0.000000    3.110000
 ---------------------------------------------------------------------

 SCF Done:  E(UHF) = -0.996647801400     A.U. after    6 cycles

 Alpha  occ. eigenvalues --   -0.49812
 Alpha virt. eigenvalues --    0.09518   0.91088   1.12386
  Beta  occ. eigenvalues --   -0.49812
  Beta virt. eigenvalues --    0.09518   0.91088   1.12386

 Mulliken charges and spin densities:
               1          2
     1  H    0.000000   0.998544
     2  H   -0.000000  -0.998544
 Sum of Mulliken charges =   0.00000  -0.00000

 Dipole moment (field-independent basis, Debye):
    X=              0.0000    Y=              0.0000    Z=             -0.0000  Tot=              0.0000
 Quadrupole moment (field-independent basis, Debye-Ang):
   XX=             -2.5730   YY=             -2.5730   ZZ=             -2.5481
   XY=              0.0000   XZ=              0.0000   YZ=              0.0000

 Normal termination of Gaussian 16 at Sun Sep 27 22:28:19 2020.
