 Gaussian 16, Revision A.03,
 Gaussian 16:  ES64L-G16RevA.03 25-Dec-2016

 -------------------------------
 # UHF/6-31G(d) Nosymm Guess=mix
 -------------------------------

 ------------
 ground state
 ------------
 Symbolic Z-matrix:
 Charge =  0 Multiplicity = 1

                          Input orientation:
 ---------------------------------------------------------------------
 Center     Atomic      Atomic             Coordinates (Angstroms)
 Number     Number       Type             X           Y           Z
 ---------------------------------------------------------------------
      1          1           0        0.000000    0.000000    0.000000
      2          1           0        0.000000    0.000000    4.550000
 ---------------------------------------------------------------------

 SCF Done:  E(UHF) = -0.996468802831     A.U. after    6 cycles

 Alpha  occ. eigenvalues --   -0.49823
 Alpha virt. eigenvalues --    0.09502   0.91611   1.10821
  Beta  occ. eigenvalues --   -0.49823
  Beta virt. eigenvalues --    0.09502   0.91611   1.10821

 Mulliken charges and spin densities:
               1          2
     1  H    0.000000   0.999989
     2  H   -0.000000  -0.999989
 Sum of Mulliken charges =   0.00000  -0.00000

 Dipole moment (field-independent basis, Debye):
    X=              0.0000    Y=              0.0000    Z=             -0.0000  Tot=              0.0000
 Quadrupole moment (field-independent basis, Debye-Ang):
   XX=             -2.5711   YY=             -2.5711   ZZ=             -2.5708
   XY=              0.0000   XZ=              0.0000   YZ=              0.0000

 Normal termination of Gaussian 16 at Sun Sep 27 22:44:49 2020.
