 Gaussian 16, Revision A.03,
 Gaussian 16:  ES64L-G16RevA.03 25-Dec-2016

 ----------------------------------------------------------------------
 #B3LYP/6-31+G(d,p) IRC(CalcFC,Forward,StepSize=2,LQA,MaxPoints=500,Max
 Cycles=100) Nosymm
 ----------------------------------------------------------------------

 ---
 IRC
 ---
 Symbolic Z-matrix:
 Charge =  0 Multiplicity = 1

 SCF Done:  E(RB3LYP) =  -442.547255270     A.U. after   20 cycles
 SCF Done:  E(RB3LYP) =  -442.547267701     A.U. after   13 cycles
 SCF Done:  E(RB3LYP) =  -442.547305042     A.U. after   13 cycles
 SCF Done:  E(RB3LYP) =  -442.547366918     A.U. after   13 cycles
 SCF Done:  E(RB3LYP) =  -442.547452834     A.U. after   13 cycles
 SCF Done:  E(RB3LYP) =  -442.547562137     A.U. after   13 cycles
 SCF Done:  E(RB3LYP) =  -442.547694032     A.U. after   13 cycles
 SCF Done:  E(RB3LYP) =  -442.547847598     A.U. after   13 cycles
 SCF Done:  E(RB3LYP) =  -442.548021802     A.U. after   13 cycles
 SCF Done:  E(RB3LYP) =  -442.548215514     A.U. after   13 cycles
 SCF Done:  E(RB3LYP) =  -442.671662435     A.U. after    9 cycles
 SCF Done:  E(RB3LYP) =  -442.671683734     A.U. after    9 cycles
 SCF Done:  E(RB3LYP) =  -442.671704361     A.U. after    9 cycles
 SCF Done:  E(RB3LYP) =  -442.671723664     A.U. after    9 cycles
 SCF Done:  E(RB3LYP) =  -442.671742220     A.U. after    9 cycles
 SCF Done:  E(RB3LYP) =  -442.671759571     A.U. after    9 cycles
 SCF Done:  E(RB3LYP) =  -442.671776059     A.U. after    9 cycles
 SCF Done:  E(RB3LYP) =  -442.671791544     A.U. after    9 cycles
 SCF Done:  E(RB3LYP) =  -442.671805954     A.U. after    9 cycles
 SCF Done:  E(RB3LYP) =  -442.671819291     A.U. after    9 cycles

                          Input orientation:
 ---------------------------------------------------------------------
 Center     Atomic      Atomic             Coordinates (Angstroms)
 Number     Number       Type             X           Y           Z
 ---------------------------------------------------------------------
      1          6           0        1.192031    0.736584   -1.261235
      2          6           0        1.303032   -0.461188   -0.323084
      3          6           0       -0.333242   -0.861210    1.353250
      4          6           0       -1.245485    0.352992    1.078753
      5          6           0       -0.438520    1.622539    0.665310
      6          6           0        0.074755    1.727011   -0.799735
      7          1           0        2.173629    1.213592   -1.237104
      8          1           0        1.016922    0.426695   -2.297530
      9          1           0       -1.860454    0.597734    1.952854
     10          1           0       -1.092312    2.489887    0.818952
     11          1           0        0.403122    1.752537    1.358809
     12          1           0       -0.783256    1.656450   -1.475851
     13          1           0        0.463184    2.742912   -0.931432
     14          1           0        0.521996   -0.666416    2.000970
     15          8           0        2.339755   -0.688588    0.282589
     16          6           0       -2.095670   -0.200777   -0.083981
     17          1           0       -2.910134   -0.820856    0.305068
     18          1           0       -2.549049    0.580736   -0.701264
     19          6           0       -1.073547   -1.077810   -0.872798
     20          7           0        0.131489   -1.185355   -0.018512
     21          1           0       -1.464075   -2.087755   -1.036021
     22          1           0       -0.821216   -0.672390   -1.853827
     23          1           0       -0.902941   -1.701429    1.768230
 ---------------------------------------------------------------------

 Alpha  occ. eigenvalues --  -19.13146 -14.35164 -10.29220 -10.22605 -10.22205
 Alpha  occ. eigenvalues --  -10.20509 -10.20470 -10.20103 -10.19963 -10.19866
 Alpha  occ. eigenvalues --   -1.04365  -0.94483  -0.81078  -0.79053  -0.74578
 Alpha  occ. eigenvalues --   -0.69392  -0.65629  -0.62003  -0.56071  -0.54224
 Alpha  occ. eigenvalues --   -0.51082  -0.49519  -0.47760  -0.45066  -0.43993
 Alpha  occ. eigenvalues --   -0.43342  -0.40990  -0.40553  -0.40055  -0.37771
 Alpha  occ. eigenvalues --   -0.37147  -0.35791  -0.34702  -0.33944  -0.33537
 Alpha  occ. eigenvalues --   -0.32281  -0.25625  -0.24129
 Alpha virt. eigenvalues --   -0.01438  -0.00473   0.00860   0.01272   0.02013
 Alpha virt. eigenvalues --    0.03492   0.03685   0.04249   0.04862   0.05369
 Alpha virt. eigenvalues --    0.07072   0.07801   0.08269   0.08561   0.09002

 Mulliken charges:
               1
     1  C   -0.164063
     2  C    0.055410
     3  C   -0.365987
     4  C    0.180527
     5  C   -0.345960
     6  C   -0.201768
     7  H    0.176412
     8  H    0.157592
     9  H    0.128782
    10  H    0.139705
    11  H    0.152563
    12  H    0.135911
    13  H    0.147414
    14  H    0.172213
    15  O   -0.417005
    16  C   -0.439593
    17  H    0.147375
    18  H    0.143761
    19  C   -0.122869
    20  N   -0.104178
    21  H    0.148906
    22  H    0.133749
    23  H    0.141105
 Sum of Mulliken charges =  -0.00000

 Dipole moment (field-independent basis, Debye):
    X=             -3.8428    Y=              1.9056    Z=             -0.9827  Tot=              4.4004
 Quadrupole moment (field-independent basis, Debye-Ang):
   XX=            -69.7605   YY=            -62.7556   ZZ=            -58.2551
   XY=              4.9330   XZ=             -2.6349   YZ=              0.1326

  Exact polarizability:   0.000   0.000   0.000   0.000   0.000   0.000
 Approx polarizability: 152.301   2.276 128.008   5.094  -4.021 132.987

 Normal termination of Gaussian 16 at Sun Apr 14 17:28:47 2019.
