 Gaussian 16, Revision A.03,
 Gaussian 16:  ES64L-G16RevA.03 25-Dec-2016

 ------------------------------------------
 #B3LYP/6-31+G(d,p) OPT Freq=hpmodes Nosymm
 ------------------------------------------

 the last point of TS2 reverse direction (./TS2_IRC/CalcFC_LQA_Reverse_
 2.log) in its IRC calculation
 ----------------------------------------------------------------------
 Symbolic Z-matrix:
 Charge =  0 Multiplicity = 1

 SCF Done:  E(RB3LYP) =  -442.680548814     A.U. after   13 cycles
 SCF Done:  E(RB3LYP) =  -442.680549127     A.U. after    8 cycles
 SCF Done:  E(RB3LYP) =  -442.680549241     A.U. after    8 cycles
 Optimization completed.
    -- Stationary point found.
 Normal termination of Gaussian 16 at Mon Apr 15 10:48:06 2019.

 ----------------------------------------------------------------------
 #N Geom=AllCheck Guess=TCheck SCRF=Check GenChk RB3LYP/6-31+G(d,p) Fre
 q
 ----------------------------------------------------------------------

 ----------------------------------------------------------------------
 the last point of TS2 reverse direction (./TS2_IRC/CalcFC_LQA_Reverse_
 2.log) in its IRC calculation
 ----------------------------------------------------------------------
 Charge =  0 Multiplicity = 1

                          Input orientation:
 ---------------------------------------------------------------------
 Center     Atomic      Atomic             Coordinates (Angstroms)
 Number     Number       Type             X           Y           Z
 ---------------------------------------------------------------------
      1          6           0        0.768888    0.581751   -1.504265
      2          6           0        0.976841   -0.824853    0.405094
      3          6           0       -0.028956   -0.748204    1.544113
      4          6           0       -1.047830    0.347362    1.120820
      5          6           0       -0.344626    1.652909    0.610083
      6          6           0       -0.066046    1.745655   -0.914898
      7          1           0        1.835711    0.724276   -1.323161
      8          1           0        0.622479    0.509583   -2.587580
      9          1           0       -1.651998    0.613282    1.995530
     10          1           0       -0.984408    2.505070    0.868538
     11          1           0        0.590381    1.797683    1.167025
     12          1           0       -1.024811    1.806752   -1.444278
     13          1           0        0.447475    2.692799   -1.122796
     14          1           0        0.521145   -0.493210    2.453026
     15          8           0        2.185333   -0.782279    0.576504
     16          6           0       -1.943276   -0.273534    0.037857
     17          1           0       -2.652689   -0.972412    0.497024
     18          1           0       -2.538630    0.492851   -0.469612
     19          6           0       -1.032142   -1.046538   -0.964795
     20          7           0        0.395620   -0.698847   -0.871861
     21          1           0       -1.115069   -2.123414   -0.788215
     22          1           0       -1.341129   -0.880422   -2.000659
     23          1           0       -0.545811   -1.700459    1.720581
 ---------------------------------------------------------------------

 SCF Done:  E(RB3LYP) =  -442.680549241     A.U. after    1 cycles

 Alpha  occ. eigenvalues --  -19.13153 -14.35231 -10.28985 -10.22788 -10.22235
 Alpha  occ. eigenvalues --  -10.21004 -10.19901 -10.19830 -10.19732 -10.19610
 Alpha  occ. eigenvalues --   -1.04321  -0.94066  -0.82209  -0.78593  -0.74847
 Alpha  occ. eigenvalues --   -0.68258  -0.66640  -0.62441  -0.56192  -0.52685
 Alpha  occ. eigenvalues --   -0.51329  -0.49028  -0.47928  -0.45042  -0.43472
 Alpha  occ. eigenvalues --   -0.42514  -0.41864  -0.41424  -0.40384  -0.39704
 Alpha  occ. eigenvalues --   -0.36239  -0.35626  -0.34554  -0.33575  -0.33024
 Alpha  occ. eigenvalues --   -0.32360  -0.25765  -0.23786
 Alpha virt. eigenvalues --   -0.01232  -0.00652   0.00984   0.01373   0.01928
 Alpha virt. eigenvalues --    0.03606   0.03826   0.04090   0.05160   0.05395
 Alpha virt. eigenvalues --    0.07013   0.07680   0.08030   0.08554   0.09147

 Mulliken charges:
               1
     1  C   -0.239013
     2  C    0.131805
     3  C   -0.291824
     4  C    0.141173
     5  C   -0.324130
     6  C   -0.261686
     7  H    0.175281
     8  H    0.138561
     9  H    0.134973
    10  H    0.140117
    11  H    0.159438
    12  H    0.137767
    13  H    0.142228
    14  H    0.171546
    15  O   -0.440345
    16  C   -0.307799
    17  H    0.143573
    18  H    0.142543
    19  C   -0.243376
    20  N   -0.104560
    21  H    0.149926
    22  H    0.144132
    23  H    0.159669
 Sum of Mulliken charges =  -0.00000

 Dipole moment (field-independent basis, Debye):
    X=             -4.0431    Y=              1.2753    Z=             -0.4248  Tot=              4.2607
 Quadrupole moment (field-independent basis, Debye-Ang):
   XX=            -69.9694   YY=            -60.7229   ZZ=            -59.6640
   XY=              4.8240   XZ=             -1.8528   YZ=             -1.0506

  Exact polarizability: 100.521   0.172  91.242   1.222  -4.200  96.438
 Approx polarizability: 149.812   0.847 126.664   6.953  -4.321 136.635

                      1                      2                      3
                      A                      A                      A
 Frequencies --    112.9321               205.6458               247.9246
 Red. masses --      4.4855                 2.0836                 2.2215
 Frc consts  --      0.0337                 0.0519                 0.0805
 IR Inten    --      4.9924                 0.6280                 0.8982

                      4                      5                      6
                      A                      A                      A
 Frequencies --    309.8594               343.4229               377.2372
 Red. masses --      2.0679                 2.6845                 2.2743
 Frc consts  --      0.1170                 0.1865                 0.1907
 IR Inten    --      1.0648                 3.9150                 0.9095

                      7                      8                      9
                      A                      A                      A
 Frequencies --    391.9443               465.5069               479.7842
 Red. masses --      3.5380                 4.2578                 2.7024
 Frc consts  --      0.3202                 0.5436                 0.3665
 IR Inten    --      0.4409                 2.3858                 2.5062

                     10                     11                     12
                      A                      A                      A
 Frequencies --    528.5442               614.0419               655.6226
 Red. masses --      3.7771                 2.2562                 2.9034
 Frc consts  --      0.6217                 0.5012                 0.7353
 IR Inten    --      0.1751                12.6609                 0.5361

                     13                     14                     15
                      A                      A                      A
 Frequencies --    724.6443               749.6991               801.5020
 Red. masses --      3.9805                 2.6385                 2.0489
 Frc consts  --      1.2315                 0.8737                 0.7755
 IR Inten    --      1.9536                15.1931                16.7164

                     16                     17                     18
                      A                      A                      A
 Frequencies --    819.3724               841.9023               866.8561
 Red. masses --      2.0145                 2.6844                 1.6329
 Frc consts  --      0.7968                 1.1210                 0.7229
 IR Inten    --      5.6422                 0.5666                 1.2072

                     19                     20                     21
                      A                      A                      A
 Frequencies --    892.5383               938.3561               958.8583
 Red. masses --      2.6410                 2.5943                 2.1639
 Frc consts  --      1.2396                 1.3459                 1.1722
 IR Inten    --      0.4551                 5.3574                 0.3059

                     22                     23                     24
                      A                      A                      A
 Frequencies --    962.4566              1011.4549              1021.4298
 Red. masses --      2.0867                 2.6416                 2.2702
 Frc consts  --      1.1389                 1.5923                 1.3955
 IR Inten    --      6.7781                20.7796                 1.5364

                     25                     26                     27
                      A                      A                      A
 Frequencies --   1057.1457              1079.9915              1111.2112
 Red. masses --      2.0771                 1.8533                 1.6704
 Frc consts  --      1.3676                 1.2736                 1.2152
 IR Inten    --      0.3255                16.8076                 9.6470

                     28                     29                     30
                      A                      A                      A
 Frequencies --   1131.9053              1169.5990              1198.6540
 Red. masses --      1.5015                 1.9355                 1.3183
 Frc consts  --      1.1335                 1.5600                 1.1160
 IR Inten    --     52.4137                21.4252                19.7235

                     31                     32                     33
                      A                      A                      A
 Frequencies --   1219.0351              1232.9342              1248.7641
 Red. masses --      1.6149                 1.4736                 1.2349
 Frc consts  --      1.4140                 1.3198                 1.1346
 IR Inten    --     20.1165                10.0426                 7.4659

                     34                     35                     36
                      A                      A                      A
 Frequencies --   1293.6842              1295.9854              1322.0988
 Red. masses --      1.6380                 1.3417                 1.4806
 Frc consts  --      1.6152                 1.3277                 1.5248
 IR Inten    --      4.5812                11.9405                 1.7689

                     37                     38                     39
                      A                      A                      A
 Frequencies --   1344.7873              1356.0708              1360.8340
 Red. masses --      1.3638                 1.3544                 1.2726
 Frc consts  --      1.4532                 1.4675                 1.3885
 IR Inten    --      2.1705                 3.3928                 1.1002

                     40                     41                     42
                      A                      A                      A
 Frequencies --   1372.7129              1380.7969              1388.7325
 Red. masses --      1.5003                 1.3321                 1.3557
 Frc consts  --      1.6656                 1.4964                 1.5404
 IR Inten    --     27.4711                12.2947                 3.7571

                     43                     44                     45
                      A                      A                      A
 Frequencies --   1394.6846              1477.6904              1491.6879
 Red. masses --      1.6359                 1.0864                 1.0823
 Frc consts  --      1.8748                 1.3977                 1.4188
 IR Inten    --     52.8724                 8.6142                 2.7337

                     46                     47                     48
                      A                      A                      A
 Frequencies --   1495.8992              1502.5078              1507.3462
 Red. masses --      1.0810                 1.0798                 1.0881
 Frc consts  --      1.4252                 1.4362                 1.4566
 IR Inten    --      5.5954                 9.6167                13.5103

                     49                     50                     51
                      A                      A                      A
 Frequencies --   1523.6986              1767.4068              3031.5545
 Red. masses --      1.0896                11.2250                 1.0623
 Frc consts  --      1.4904                20.6590                 5.7521
 IR Inten    --      3.6081               338.5316                12.2607

                     52                     53                     54
                      A                      A                      A
 Frequencies --   3035.4345              3040.8644              3044.2415
 Red. masses --      1.0640                 1.0654                 1.0667
 Frc consts  --      5.7759                 5.8042                 5.8244
 IR Inten    --     20.8934                21.7373                17.7537

                     55                     56                     57
                      A                      A                      A
 Frequencies --   3058.2908              3061.4885              3064.7322
 Red. masses --      1.0842                 1.0681                 1.0708
 Frc consts  --      5.9746                 5.8982                 5.9255
 IR Inten    --     30.4692                72.0983                60.0373

                     58                     59                     60
                      A                      A                      A
 Frequencies --   3068.1233              3077.7149              3082.8378
 Red. masses --      1.0948                 1.1006                 1.1014
 Frc consts  --      6.0722                 6.1423                 6.1676
 IR Inten    --     28.2228                48.1314                19.5381

                     61                     62                     63
                      A                      A                      A
 Frequencies --   3110.6329              3122.8799              3136.5718
 Red. masses --      1.1054                 1.0976                 1.0986
 Frc consts  --      6.3020                 6.3069                 6.3681
 IR Inten    --     38.2188                10.5475                10.2134

 - Thermochemistry -
 -------------------
 Temperature   298.150 Kelvin.  Pressure   1.00000 Atm.
 Atom     1 has atomic number  6 and mass  12.00000

 Molecular mass:   139.09971 amu.
 Principal axes and moments of inertia in atomic units:
                           1         2         3
     Eigenvalues --  1023.479981181.052641326.24850
           X            0.89328  -0.37155   0.25300
           Y           -0.43249  -0.55697   0.70904
           Z            0.12253   0.74279   0.65822
 This molecule is an asymmetric top.
 Rotational symmetry number  1.
 Warning -- assumption of classical behavior for rotation
           may cause significant error
 Rotational temperatures (Kelvin)      0.08463     0.07334     0.06531
 Rotational constants (GHZ):           1.76334     1.52808     1.36079
 Zero-point vibrational energy     538216.5 (Joules/Mol)
                                  128.63683 (Kcal/Mol)
 Warning -- explicit consideration of  11 degrees of freedom as
           vibrations may cause significant error
 Vibrational temperatures:    162.48   295.88   356.71   445.82   494.11
          (Kelvin)            542.76   563.92   669.76   690.30   760.46
                              883.47   943.29  1042.60  1078.65  1153.18
                             1178.89  1211.31  1247.21  1284.16  1350.09
                             1379.58  1384.76  1455.26  1469.61  1521.00
                             1553.87  1598.79  1628.56  1682.79  1724.60
                             1753.92  1773.92  1796.69  1861.32  1864.63
                             1902.21  1934.85  1951.08  1957.94  1975.03
                             1986.66  1998.08  2006.64  2126.07  2146.21
                             2152.27  2161.77  2168.74  2192.26  2542.90
                             4361.73  4367.31  4375.13  4379.98  4400.20
                             4404.80  4409.47  4414.35  4428.15  4435.52
                             4475.51  4493.13  4512.83

 Zero-point correction=                           0.204996 (Hartree/Particle)
 Thermal correction to Energy=                    0.213023
 Thermal correction to Enthalpy=                  0.213967
 Thermal correction to Gibbs Free Energy=         0.172762
 Sum of electronic and zero-point Energies=           -442.475553
 Sum of electronic and thermal Energies=              -442.467526
 Sum of electronic and thermal Enthalpies=            -442.466582
 Sum of electronic and thermal Free Energies=         -442.507787

                     E (Thermal)             CV                S
                      KCal/Mol        Cal/Mol-Kelvin    Cal/Mol-Kelvin
 Total                  133.674             33.779             86.724
 Electronic               0.000              0.000              0.000
 Translational            0.889              2.981             40.702
 Rotational               0.889              2.981             28.863
 Vibrational            131.897             27.817             17.160
 Vibration     1          0.607              1.939              3.218
 Vibration     2          0.640              1.832              2.082
 Vibration     3          0.662              1.766              1.745
 Vibration     4          0.699              1.655              1.363
 Vibration     5          0.722              1.589              1.196
 Vibration     6          0.748              1.519              1.050
 Vibration     7          0.759              1.487              0.993
 Vibration     8          0.823              1.327              0.750
 Vibration     9          0.836              1.295              0.711
 Vibration    10          0.883              1.187              0.590
 Vibration    11          0.973              1.002              0.426

 Optimization completed.
    -- Stationary point found.
 Normal termination of Gaussian 16 at Mon Apr 15 11:35:17 2019.
