 Gaussian 16, Revision A.03,
 Gaussian 16:  ES64L-G16RevA.03 25-Dec-2016

 ------------------------------------------
 #B3LYP/6-31+G(d,p) OPT Freq=hpmodes Nosymm
 ------------------------------------------

 --------------------------------------------------------------
 the last point of TS1 forward direction in its IRC calculation
 --------------------------------------------------------------
 Symbolic Z-matrix:
 Charge =  0 Multiplicity = 1

 SCF Done:  E(RB3LYP) =  -442.669611118     A.U. after   13 cycles
 SCF Done:  E(RB3LYP) =  -442.670287986     A.U. after   11 cycles
 SCF Done:  E(RB3LYP) =  -442.670796610     A.U. after   12 cycles
 SCF Done:  E(RB3LYP) =  -442.671545102     A.U. after   11 cycles
 SCF Done:  E(RB3LYP) =  -442.671771432     A.U. after   11 cycles
 SCF Done:  E(RB3LYP) =  -442.671871581     A.U. after   11 cycles
 SCF Done:  E(RB3LYP) =  -442.671879675     A.U. after    9 cycles
 SCF Done:  E(RB3LYP) =  -442.671880865     A.U. after    9 cycles
 SCF Done:  E(RB3LYP) =  -442.671881010     A.U. after    8 cycles
 Optimization completed.
    -- Stationary point found.
 Normal termination of Gaussian 16 at Mon Apr 15 11:46:45 2019.

 ----------------------------------------------------------------------
 #N Geom=AllCheck Guess=TCheck SCRF=Check GenChk RB3LYP/6-31+G(d,p) Fre
 q
 ----------------------------------------------------------------------

 Structure from the checkpoint file:  "/scratch/Grace/g03/Gau-20825.chk"
 --------------------------------------------------------------
 the last point of TS1 forward direction in its IRC calculation
 --------------------------------------------------------------
 Charge =  0 Multiplicity = 1

                          Input orientation:
 ---------------------------------------------------------------------
 Center     Atomic      Atomic             Coordinates (Angstroms)
 Number     Number       Type             X           Y           Z
 ---------------------------------------------------------------------
      1          6           0        1.206664    0.789427   -1.209241
      2          6           0        1.327128   -0.354571   -0.210633
      3          6           0       -0.362017   -0.811043    1.392389
      4          6           0       -1.302337    0.363622    1.048759
      5          6           0       -0.520210    1.653033    0.644928
      6          6           0        0.045595    1.755786   -0.801795
      7          1           0        2.170366    1.301588   -1.186388
      8          1           0        1.060034    0.430963   -2.233451
      9          1           0       -1.966437    0.604827    1.887113
     10          1           0       -1.206829    2.500870    0.759944
     11          1           0        0.289718    1.820444    1.367376
     12          1           0       -0.783718    1.653133   -1.509147
     13          1           0        0.410316    2.780828   -0.929536
     14          1           0        0.451560   -0.574711    2.078617
     15          8           0        2.328434   -0.481337    0.479046
     16          6           0       -2.075871   -0.244775   -0.139857
     17          1           0       -2.887776   -0.882998    0.224136
     18          1           0       -2.523581    0.506232   -0.797396
     19          6           0       -0.987322   -1.104673   -0.856572
     20          7           0        0.183421   -1.135085    0.050550
     21          1           0       -1.330337   -2.134677   -0.999365
     22          1           0       -0.710556   -0.722441   -1.839983
     23          1           0       -0.921460   -1.666497    1.790220
 ---------------------------------------------------------------------

 SCF Done:  E(RB3LYP) =  -442.671881010     A.U. after    1 cycles

 Alpha  occ. eigenvalues --  -19.13048 -14.35258 -10.29166 -10.22633 -10.22160
 Alpha  occ. eigenvalues --  -10.20505 -10.20489 -10.20080 -10.19938 -10.19864
 Alpha  occ. eigenvalues --   -1.04336  -0.94517  -0.81043  -0.79072  -0.74579
 Alpha  occ. eigenvalues --   -0.69340  -0.65665  -0.62023  -0.56023  -0.54171
 Alpha  occ. eigenvalues --   -0.51093  -0.49637  -0.47724  -0.45055  -0.44011
 Alpha  occ. eigenvalues --   -0.43381  -0.40868  -0.40454  -0.40048  -0.37760
 Alpha  occ. eigenvalues --   -0.37168  -0.35752  -0.34706  -0.33923  -0.33497
 Alpha  occ. eigenvalues --   -0.32271  -0.25620  -0.24206
 Alpha virt. eigenvalues --   -0.01359  -0.00440   0.00880   0.01278   0.02012
 Alpha virt. eigenvalues --    0.03489   0.03698   0.04255   0.04879   0.05395
 Alpha virt. eigenvalues --    0.07087   0.07779   0.08275   0.08572   0.09004

 Mulliken charges:
               1
     1  C   -0.161489
     2  C    0.058639
     3  C   -0.376174
     4  C    0.186727
     5  C   -0.349608
     6  C   -0.202600
     7  H    0.175768
     8  H    0.155332
     9  H    0.128707
    10  H    0.139608
    11  H    0.154760
    12  H    0.136518
    13  H    0.147916
    14  H    0.174584
    15  O   -0.419394
    16  C   -0.439821
    17  H    0.147277
    18  H    0.143502
    19  C   -0.121143
    20  N   -0.101955
    21  H    0.148737
    22  H    0.133379
    23  H    0.140730
 Sum of Mulliken charges =  -0.00000

 Dipole moment (field-independent basis, Debye):
    X=             -3.8696    Y=              1.6052    Z=             -1.2645  Tot=              4.3760
 Quadrupole moment (field-independent basis, Debye-Ang):
   XX=            -69.7771   YY=            -62.0062   ZZ=            -58.7107
   XY=              4.1058   XZ=             -3.5866   YZ=              0.2887

  Exact polarizability: 105.055   3.292  92.270  -0.940  -3.526  91.145
 Approx polarizability: 151.203   4.361 128.142   6.384  -3.237 134.037

                      1                      2                      3
                      A                      A                      A
 Frequencies --    104.5239               174.5388               255.6711
 Red. masses --      4.1306                 2.5605                 1.8801
 Frc consts  --      0.0266                 0.0460                 0.0724
 IR Inten    --      4.4449                 0.6158                 0.1359

                      4                      5                      6
                      A                      A                      A
 Frequencies --    285.3955               339.6835               349.8877
 Red. masses --      3.4985                 2.3690                 2.4732
 Frc consts  --      0.1679                 0.1610                 0.1784
 IR Inten    --      2.3787                 0.3918                 2.3223

                      7                      8                      9
                      A                      A                      A
 Frequencies --    406.3873               459.6605               478.0088
 Red. masses --      2.5741                 2.4127                 3.3926
 Frc consts  --      0.2505                 0.3003                 0.4567
 IR Inten    --      1.5221                 1.6393                 1.0772

                     10                     11                     12
                      A                      A                      A
 Frequencies --    528.9164               654.2474               696.3517
 Red. masses --      3.2782                 4.0292                 2.0667
 Frc consts  --      0.5403                 1.0161                 0.5904
 IR Inten    --      2.2740                 7.7105                13.5292

                     13                     14                     15
                      A                      A                      A
 Frequencies --    723.9773               760.7446               775.4775
 Red. masses --      3.4259                 3.3905                 3.9833
 Frc consts  --      1.0580                 1.1561                 1.4113
 IR Inten    --     10.5309                 7.4259                 1.2859

                     16                     17                     18
                      A                      A                      A
 Frequencies --    818.8446               869.7265               874.8797
 Red. masses --      1.2942                 1.9332                 2.7561
 Frc consts  --      0.5113                 0.8616                 1.2429
 IR Inten    --      3.0075                 6.4196                 0.3543

                     19                     20                     21
                      A                      A                      A
 Frequencies --    890.3003               922.0373               950.1887
 Red. masses --      2.4015                 2.2225                 2.5761
 Frc consts  --      1.1215                 1.1132                 1.3704
 IR Inten    --      2.0166                 1.3622                23.5624

                     22                     23                     24
                      A                      A                      A
 Frequencies --    977.6995              1002.1769              1009.4071
 Red. masses --      2.3958                 1.9426                 2.0004
 Frc consts  --      1.3493                 1.1496                 1.2009
 IR Inten    --      2.4163                 4.4785                10.5140

                     25                     26                     27
                      A                      A                      A
 Frequencies --   1037.0215              1078.7271              1094.6387
 Red. masses --      2.5429                 2.5185                 1.4976
 Frc consts  --      1.6112                 1.7267                 1.0573
 IR Inten    --      4.6202                 9.3262                10.7058

                     28                     29                     30
                      A                      A                      A
 Frequencies --   1140.1356              1154.3428              1184.8672
 Red. masses --      1.8997                 1.8286                 1.5121
 Frc consts  --      1.4550                 1.4356                 1.2508
 IR Inten    --     27.9157                22.0381                43.0646

                     31                     32                     33
                      A                      A                      A
 Frequencies --   1205.4936              1235.6811              1239.4041
 Red. masses --      1.1760                 1.3015                 1.2700
 Frc consts  --      1.0069                 1.1709                 1.1494
 IR Inten    --      2.3251                20.2770                 6.0078

                     34                     35                     36
                      A                      A                      A
 Frequencies --   1252.3205              1288.6004              1312.4227
 Red. masses --      1.3214                 1.3595                 1.2779
 Frc consts  --      1.2210                 1.3301                 1.2969
 IR Inten    --      3.5746                 2.2239                 1.3909

                     37                     38                     39
                      A                      A                      A
 Frequencies --   1321.0549              1333.4641              1350.6874
 Red. masses --      1.4535                 1.4086                 1.3907
 Frc consts  --      1.4946                 1.4757                 1.4948
 IR Inten    --      2.4562                 2.1586                 7.7842

                     40                     41                     42
                      A                      A                      A
 Frequencies --   1357.6097              1371.7366              1385.2851
 Red. masses --      1.4955                 1.4640                 1.4251
 Frc consts  --      1.6240                 1.6230                 1.6112
 IR Inten    --     33.7638                18.0329                20.4676

                     43                     44                     45
                      A                      A                      A
 Frequencies --   1389.7328              1484.2183              1489.2259
 Red. masses --      1.6297                 1.0766                 1.0804
 Frc consts  --      1.8545                 1.3974                 1.4117
 IR Inten    --     59.7881                 2.2784                 3.7999

                     46                     47                     48
                      A                      A                      A
 Frequencies --   1501.3547              1509.7480              1518.0536
 Red. masses --      1.0936                 1.0838                 1.0852
 Frc consts  --      1.4523                 1.4555                 1.4734
 IR Inten    --     16.0395                 6.4244                16.3332

                     49                     50                     51
                      A                      A                      A
 Frequencies --   1534.7433              1751.9873              3028.2925
 Red. masses --      1.0945                10.9133                 1.0621
 Frc consts  --      1.5189                19.7364                 5.7385
 IR Inten    --      2.6164               322.3264                19.7700

                     52                     53                     54
                      A                      A                      A
 Frequencies --   3047.0826              3050.3762              3054.7141
 Red. masses --      1.0715                 1.0669                 1.0704
 Frc consts  --      5.8613                 5.8490                 5.8850
 IR Inten    --     35.9067                 4.7581                20.8213

                     55                     56                     57
                      A                      A                      A
 Frequencies --   3061.1464              3067.6297              3068.8845
 Red. masses --      1.0780                 1.0855                 1.0684
 Frc consts  --      5.9516                 6.0185                 5.9286
 IR Inten    --     50.1563                37.3138                47.1336

                     58                     59                     60
                      A                      A                      A
 Frequencies --   3074.2923              3086.6514              3103.1094
 Red. masses --      1.0814                 1.1011                 1.1026
 Frc consts  --      6.0217                 6.1811                 6.2553
 IR Inten    --     57.6400                34.0992                19.7069

                     61                     62                     63
                      A                      A                      A
 Frequencies --   3129.2127              3137.4237              3152.6696
 Red. masses --      1.0986                 1.0965                 1.0968
 Frc consts  --      6.3383                 6.3595                 6.4229
 IR Inten    --     24.0368                23.8754                 6.0572

 - Thermochemistry -
 -------------------
 Temperature   298.150 Kelvin.  Pressure   1.00000 Atm.
 Atom     1 has atomic number  6 and mass  12.00000

 Molecular mass:   139.09971 amu.
 Principal axes and moments of inertia in atomic units:
                           1         2         3
     Eigenvalues --   934.513521235.550251469.84579
           X            0.98829  -0.06029   0.14015
           Y            0.01184   0.94614   0.32355
           Z           -0.15211  -0.31810   0.93578
 This molecule is an asymmetric top.
 Rotational symmetry number  1.
 Warning -- assumption of classical behavior for rotation
           may cause significant error
 Rotational temperatures (Kelvin)      0.09268     0.07010     0.05893
 Rotational constants (GHZ):           1.93121     1.46068     1.22784
 Zero-point vibrational energy     537678.2 (Joules/Mol)
                                  128.50817 (Kcal/Mol)
 Warning -- explicit consideration of  10 degrees of freedom as
           vibrations may cause significant error
 Vibrational temperatures:    150.39   251.12   367.85   410.62   488.73
          (Kelvin)            503.41   584.70   661.35   687.75   760.99
                              941.32  1001.89  1041.64  1094.54  1115.74
                             1178.13  1251.34  1258.76  1280.94  1326.61
                             1367.11  1406.69  1441.91  1452.31  1492.04
                             1552.05  1574.94  1640.40  1660.84  1704.76
                             1734.44  1777.87  1783.23  1801.81  1854.01
                             1888.28  1900.70  1918.56  1943.34  1953.30
                             1973.62  1993.12  1999.52  2135.46  2142.66
                             2160.11  2172.19  2184.14  2208.15  2520.72
                             4357.04  4384.07  4388.81  4395.05  4404.31
                             4413.63  4415.44  4423.22  4441.00  4464.68
                             4502.24  4514.05  4535.99

 Zero-point correction=                           0.204791 (Hartree/Particle)
 Thermal correction to Energy=                    0.212905
 Thermal correction to Enthalpy=                  0.213849
 Thermal correction to Gibbs Free Energy=         0.172350
 Sum of electronic and zero-point Energies=           -442.467090
 Sum of electronic and thermal Energies=              -442.458976
 Sum of electronic and thermal Enthalpies=            -442.458032
 Sum of electronic and thermal Free Energies=         -442.499531

                     E (Thermal)             CV                S
                      KCal/Mol        Cal/Mol-Kelvin    Cal/Mol-Kelvin
 Total                  133.600             33.880             87.342
 Electronic               0.000              0.000              0.000
 Translational            0.889              2.981             40.702
 Rotational               0.889              2.981             28.919
 Vibrational            131.823             27.918             17.721
 Vibration     1          0.605              1.946              3.368
 Vibration     2          0.627              1.874              2.386
 Vibration     3          0.666              1.753              1.691
 Vibration     4          0.683              1.701              1.501
 Vibration     5          0.720              1.596              1.214
 Vibration     6          0.727              1.575              1.167
 Vibration     7          0.771              1.456              0.939
 Vibration     8          0.818              1.340              0.767
 Vibration     9          0.835              1.299              0.715
 Vibration    10          0.884              1.186              0.590

 Optimization completed.
    -- Stationary point found.
 Normal termination of Gaussian 16 at Mon Apr 15 12:49:54 2019.
