 Gaussian 09, Revision A.02,
 Gaussian 09:  AM64L-G09RevA.02 11-Jun-2009

 ----------------------------------------------------------
 #B3LYP/6-31+G(d,p) OPT(TS,CalcFC,Noeigentest) Freq=hpmodes
 ----------------------------------------------------------

 ---
 TS1
 ---
 Symbolic Z-matrix:
 Charge =  0 Multiplicity = 1

 SCF Done:  E(RB3LYP) =  -442.511904163     A.U. after   19 cycles
 Optimization completed.
    -- Stationary point found.
 Normal termination of Gaussian 09 at Wed Sep 26 05:46:58 2018.

 ----------------------------------------------------------------------
 #N Geom=AllCheck Guess=TCheck SCRF=Check GenChk RB3LYP/6-31+G(d,p) Fre
 q
 ----------------------------------------------------------------------

 TS1
 ---
 Redundant internal coordinates taken from checkpoint file:
 TS1.chk
 Charge =  0 Multiplicity = 1

                         Standard orientation:
 ---------------------------------------------------------------------
 Center     Atomic      Atomic             Coordinates (Angstroms)
 Number     Number       Type             X           Y           Z
 ---------------------------------------------------------------------
      1          6           0        1.463859    0.930708   -0.636728
      2          6           0        1.360177   -0.386368    0.136302
      3          6           0        0.269341   -0.396256    1.300168
      4          6           0       -1.030094    0.352656    1.014480
      5          6           0       -0.753063    1.730524    0.373019
      6          6           0        0.153016    1.694013   -0.870223
      7          1           0        2.148155    1.542943   -0.030304
      8          1           0        1.987553    0.728397   -1.575439
      9          1           0       -1.525095    0.540003    1.980551
     10          1           0       -1.704412    2.219601    0.127006
     11          1           0       -0.274014    2.359284    1.136318
     12          1           0       -0.382169    1.263744   -1.720623
     13          1           0        0.390038    2.723695   -1.165029
     14          1           0        0.850136    0.108718    2.086174
     15          8           0        2.343494   -1.093037    0.305662
     16          6           0       -1.986693   -0.556283    0.250197
     17          1           0       -2.253394   -1.417812    0.866979
     18          1           0       -2.903038   -0.045960   -0.063361
     19          6           0       -1.344193   -1.144692   -1.107316
     20          7           0       -0.079060   -1.554632   -0.751618
     21          1           0       -2.010525   -1.984886   -1.377977
     22          1           0       -1.415986   -0.338334   -1.860103
     23          1           0        0.104120   -1.418488    1.652448
 ---------------------------------------------------------------------

 SCF Done:  E(RB3LYP) =  -442.511904163     A.U. after    1 cycles

 The electronic state is 1-A.
 Alpha  occ. eigenvalues --  -19.12033 -14.37380 -10.28322 -10.23806 -10.23757
 Alpha  occ. eigenvalues --  -10.21937 -10.21026 -10.20449 -10.19856 -10.19480
 Alpha  occ. eigenvalues --   -1.02401  -0.89739  -0.83452  -0.78188  -0.74062
 Alpha  occ. eigenvalues --   -0.71182  -0.63467  -0.60803  -0.58011  -0.53632
 Alpha  occ. eigenvalues --   -0.49087  -0.48040  -0.47075  -0.45096  -0.44853
 Alpha  occ. eigenvalues --   -0.43750  -0.41987  -0.41033  -0.39917  -0.38336
 Alpha  occ. eigenvalues --   -0.37203  -0.35791  -0.34334  -0.33589  -0.33266
 Alpha  occ. eigenvalues --   -0.30312  -0.23421  -0.22082
 Alpha virt. eigenvalues --   -0.14405  -0.01170   0.00173   0.00717   0.01977
 Alpha virt. eigenvalues --    0.02839   0.03494   0.03642   0.04290   0.05017
 Alpha virt. eigenvalues --    0.05476   0.07184   0.07482   0.08144   0.08344

 Mulliken atomic charges:
              1
     1  C   -0.299895
     2  C    0.123190
     3  C   -0.366610
     4  C    0.273373
     5  C   -0.498308
     6  C   -0.077912
     7  H    0.160772
     8  H    0.167892
     9  H    0.142202
    10  H    0.136380
    11  H    0.145344
    12  H    0.128009
    13  H    0.139886
    14  H    0.185206
    15  O   -0.381667
    16  C   -0.465541
    17  H    0.175015
    18  H    0.163668
    19  C   -0.179658
    20  N   -0.139433
    21  H    0.149217
    22  H    0.126021
    23  H    0.192849
 Sum of Mulliken atomic charges =   0.00000

 Dipole moment (field-independent basis, Debye):
    X=             -4.9004    Y=              3.3101    Z=              0.2338  Tot=              5.9182
 Quadrupole moment (field-independent basis, Debye-Ang):
   XX=            -67.1070   YY=            -66.4625   ZZ=            -58.6628
   XY=              8.2192   XZ=             -0.7301   YZ=              0.2493

  Exact polarizability: 131.178   4.801 104.278   9.122   2.713  97.945
 Approx polarizability: 227.032  11.751 153.763  36.234  17.938 163.998

 ******    1 imaginary frequencies (negative Signs) ******

                     1                      2                      3
                     A                      A                      A
 Frequencies --  -373.8992               118.9188               171.1289
 Red. masses --     6.4764                 2.7062                 2.6094
 Frc consts  --     0.5335                 0.0225                 0.0450
 IR Inten    --     4.3313                 2.0137                12.0346

                     4                      5                      6
                     A                      A                      A
 Frequencies --   216.5666               261.6787               295.1545
 Red. masses --     4.2235                 2.6016                 3.2339
 Frc consts  --     0.1167                 0.1050                 0.1660
 IR Inten    --     1.8296                 2.8528                 1.3357

                     7                      8                      9
                     A                      A                      A
 Frequencies --   342.6996               378.3593               407.2528
 Red. masses --     3.3691                 2.0972                 3.0452
 Frc consts  --     0.2331                 0.1769                 0.2976
 IR Inten    --     7.1520                 1.6616                11.1264

                    10                     11                     12
                     A                      A                      A
 Frequencies --   436.7903               455.7123               469.7948
 Red. masses --     3.2927                 4.1929                 3.5608
 Frc consts  --     0.3701                 0.5130                 0.4630
 IR Inten    --     7.9948                 7.7167                 8.6105

                    13                     14                     15
                     A                      A                      A
 Frequencies --   537.6555               656.3299               697.3427
 Red. masses --     2.9325                 4.5524                 2.2372
 Frc consts  --     0.4994                 1.1554                 0.6410
 IR Inten    --     3.5136                 4.3288                34.6669

                    16                     17                     18
                     A                      A                      A
 Frequencies --   724.5787               788.5209               805.1170
 Red. masses --     2.3373                 2.1804                 2.1305
 Frc consts  --     0.7230                 0.7988                 0.8137
 IR Inten    --    19.0787                12.1435                27.9895

                    19                     20                     21
                     A                      A                      A
 Frequencies --   850.0233               884.9937               907.2631
 Red. masses --     1.6660                 2.0946                 2.0186
 Frc consts  --     0.7092                 0.9666                 0.9790
 IR Inten    --     4.6468                20.9504                 4.3363

                    22                     23                     24
                     A                      A                      A
 Frequencies --   950.0284               961.5726               990.4442
 Red. masses --     1.9747                 1.9309                 1.9163
 Frc consts  --     1.0501                 1.0519                 1.1076
 IR Inten    --     3.4597                37.1542                50.3211

                    25                     26                     27
                     A                      A                      A
 Frequencies --  1018.5915              1057.3469              1068.9719
 Red. masses --     1.8852                 1.6003                 1.7296
 Frc consts  --     1.1524                 1.0541                 1.1645
 IR Inten    --    14.3322                38.0252                 7.4058

                    28                     29                     30
                     A                      A                      A
 Frequencies --  1095.8105              1103.1710              1141.4704
 Red. masses --     1.5842                 1.7224                 1.1759
 Frc consts  --     1.1208                 1.2350                 0.9027
 IR Inten    --    14.4438                 4.8265                18.8897

                    31                     32                     33
                     A                      A                      A
 Frequencies --  1171.2032              1194.4644              1203.4078
 Red. masses --     1.3894                 1.2970                 1.4670
 Frc consts  --     1.1229                 1.0902                 1.2517
 IR Inten    --    14.7657                 5.4447                17.7021

                    34                     35                     36
                     A                      A                      A
 Frequencies --  1228.4396              1258.2246              1271.0428
 Red. masses --     1.3065                 1.1828                 1.3726
 Frc consts  --     1.1616                 1.1032                 1.3065
 IR Inten    --     2.7843                 6.6524                 3.1127

                    37                     38                     39
                     A                      A                      A
 Frequencies --  1295.2014              1335.8898              1345.5818
 Red. masses --     1.2868                 1.6657                 1.6617
 Frc consts  --     1.2719                 1.7514                 1.7726
 IR Inten    --     9.2835                 0.4730                 4.2643

                    40                     41                     42
                     A                      A                      A
 Frequencies --  1348.9448              1363.1249              1379.5999
 Red. masses --     1.4659                 1.3729                 1.4461
 Frc consts  --     1.5717                 1.5030                 1.6216
 IR Inten    --     3.7461                 0.5871                 2.3331

                    43                     44                     45
                     A                      A                      A
 Frequencies --  1393.0344              1457.2853              1468.6046
 Red. masses --     1.4095                 1.1056                 1.0817
 Frc consts  --     1.6115                 1.3833                 1.3746
 IR Inten    --     0.7148                10.2965                 2.0075

                    46                     47                     48
                     A                      A                      A
 Frequencies --  1479.4703              1497.0154              1506.1725
 Red. masses --     1.0976                 1.0933                 1.1096
 Frc consts  --     1.4154                 1.4436                 1.4831
 IR Inten    --     6.1396                10.2537                20.6343

                    49                     50                     51
                     A                      A                      A
 Frequencies --  1551.9557              1699.3803              2909.2361
 Red. masses --     1.1386                11.3298                 1.0451
 Frc consts  --     1.6158                19.2777                 5.2115
 IR Inten    --    19.3511               313.1247                89.7569

                    52                     53                     54
                     A                      A                      A
 Frequencies --  2944.9393              2995.6053              3017.1258
 Red. masses --     1.1079                 1.0808                 1.0709
 Frc consts  --     5.6612                 5.7144                 5.7437
 IR Inten    --    41.1268                10.5514                16.1631

                    55                     56                     57
                     A                      A                      A
 Frequencies --  3020.8296              3026.4876              3048.8220
 Red. masses --     1.0654                 1.0689                 1.0713
 Frc consts  --     5.7283                 5.7685                 5.8670
 IR Inten    --    29.9743                25.1793                42.3282

                    58                     59                     60
                     A                      A                      A
 Frequencies --  3060.0189              3069.9315              3100.0644
 Red. masses --     1.0995                 1.0605                 1.0911
 Frc consts  --     6.0658                 5.8885                 6.1781
 IR Inten    --    24.7529                38.1463                17.7970

                    61                     62                     63
                     A                      A                      A
 Frequencies --  3107.0293              3111.5484              3130.6147
 Red. masses --     1.0916                 1.0934                 1.1068
 Frc consts  --     6.2089                 6.2373                 6.3914
 IR Inten    --     7.7430                26.9728                15.4604

 - Thermochemistry -
 -------------------
 Temperature   298.150 Kelvin.  Pressure   1.00000 Atm.
 Atom     1 has atomic number  6 and mass  12.00000

 Molecular mass:   139.09971 amu.
 Principal axes and moments of inertia in atomic units:
                           1         2         3
     Eigenvalues --  1025.211581283.581601603.86565
           X            0.99465   0.10306  -0.00720
           Y           -0.10322   0.99427  -0.02793
           Z            0.00428   0.02852   0.99958
 This molecule is an asymmetric top.
 Rotational symmetry number  1.
 Warning -- assumption of classical behavior for rotation
           may cause significant error
 Rotational temperatures (Kelvin)      0.08448     0.06748     0.05400
 Rotational constants (GHZ):           1.76036     1.40602     1.12524
    1 imaginary frequencies ignored.
 Zero-point vibrational energy     519081.1 (Joules/Mol)
                                  124.06336 (Kcal/Mol)
 Warning -- explicit consideration of  12 degrees of freedom as
           vibrations may cause significant error
 Vibrational temperatures:    171.10   246.22   311.59   376.50   424.66
          (Kelvin)            493.07   544.37   585.95   628.44   655.67
                              675.93   773.57   944.31  1003.32  1042.51
                             1134.50  1158.38  1222.99  1273.31  1305.35
                             1366.88  1383.49  1425.03  1465.52  1521.28
                             1538.01  1576.62  1587.22  1642.32  1685.10
                             1718.57  1731.43  1767.45  1810.30  1828.74
                             1863.50  1922.05  1935.99  1940.83  1961.23
                             1984.93  2004.26  2096.71  2112.99  2128.63
                             2153.87  2167.04  2232.92  2445.03  4185.74
                             4237.11  4310.00  4340.97  4346.29  4354.44
                             4386.57  4402.68  4416.94  4460.30  4470.32
                             4476.82  4504.25

 Zero-point correction=                           0.197708 (Hartree/Particle)
 Thermal correction to Energy=                    0.206421
 Thermal correction to Enthalpy=                  0.207365
 Thermal correction to Gibbs Free Energy=         0.164801
 Sum of electronic and zero-point Energies=           -442.314197
 Sum of electronic and thermal Energies=              -442.305483
 Sum of electronic and thermal Enthalpies=            -442.304539
 Sum of electronic and thermal Free Energies=         -442.347103

                     E (Thermal)             CV                S
                      KCal/Mol        Cal/Mol-Kelvin    Cal/Mol-Kelvin
 Total                  129.531             35.793             89.584
 Electronic               0.000              0.000              0.000
 Translational            0.889              2.981             40.702
 Rotational               0.889              2.981             29.136
 Vibrational            127.754             29.831             19.746
 Vibration     1          0.609              1.934              3.118
 Vibration     2          0.626              1.878              2.423
 Vibration     3          0.645              1.816              1.988
 Vibration     4          0.669              1.743              1.651
 Vibration     5          0.689              1.683              1.444
 Vibration     6          0.722              1.590              1.200
 Vibration     7          0.749              1.516              1.046
 Vibration     8          0.772              1.454              0.936
 Vibration     9          0.797              1.390              0.837
 Vibration    10          0.814              1.348              0.779
 Vibration    11          0.827              1.317              0.738
 Vibration    12          0.893              1.167              0.570

 Optimization completed.
    -- Stationary point found.
 Normal termination of Gaussian 09 at Wed Sep 26 06:17:01 2018.
