 Gaussian 16, Revision A.03,
 Gaussian 16:  ES64L-G16RevA.03 25-Dec-2016

 ----------------------------------------------------------------------
 #B3LYP/6-31+G(d,p) IRC(CalcAll,Forward,StepSize=5,LQA,MaxPoints=200,Ma
 xCycles=100) Nosymm
 ----------------------------------------------------------------------

 ---
 IRC
 ---
 Symbolic Z-matrix:
 Charge =  0 Multiplicity = 1

 SCF Done:  E(RB3LYP) =  -442.511930514     A.U. after   18 cycles
 SCF Done:  E(RB3LYP) =  -442.511972418     A.U. after   14 cycles
 SCF Done:  E(RB3LYP) =  -442.512090153     A.U. after   14 cycles
 SCF Done:  E(RB3LYP) =  -442.512274462     A.U. after   14 cycles
 SCF Done:  E(RB3LYP) =  -442.512517358     A.U. after   14 cycles
 SCF Done:  E(RB3LYP) =  -442.512811096     A.U. after   14 cycles
 SCF Done:  E(RB3LYP) =  -442.513148528     A.U. after   14 cycles
 SCF Done:  E(RB3LYP) =  -442.513523144     A.U. after   14 cycles
 SCF Done:  E(RB3LYP) =  -442.513929089     A.U. after   14 cycles
 SCF Done:  E(RB3LYP) =  -442.514361158     A.U. after   14 cycles
 SCF Done:  E(RB3LYP) =  -442.663419375     A.U. after   10 cycles
 SCF Done:  E(RB3LYP) =  -442.663466287     A.U. after   10 cycles
 SCF Done:  E(RB3LYP) =  -442.663509088     A.U. after   10 cycles
 SCF Done:  E(RB3LYP) =  -442.663547899     A.U. after   10 cycles
 SCF Done:  E(RB3LYP) =  -442.663582851     A.U. after   10 cycles
 SCF Done:  E(RB3LYP) =  -442.663614078     A.U. after   10 cycles
 SCF Done:  E(RB3LYP) =  -442.663641721     A.U. after   10 cycles
 SCF Done:  E(RB3LYP) =  -442.663665933     A.U. after   10 cycles
 SCF Done:  E(RB3LYP) =  -442.663686875     A.U. after   10 cycles
 SCF Done:  E(RB3LYP) =  -442.663704717     A.U. after   10 cycles

                          Input orientation:
 ---------------------------------------------------------------------
 Center     Atomic      Atomic             Coordinates (Angstroms)
 Number     Number       Type             X           Y           Z
 ---------------------------------------------------------------------
      1          6           0        1.589490    1.148199   -0.422765
      2          6           0        1.550444   -0.121075    0.417171
      3          6           0        0.488048   -0.166137    1.508492
      4          6           0       -0.907535    0.356548    1.091079
      5          6           0       -0.786593    1.695041    0.330441
      6          6           0        0.198541    1.653244   -0.849169
      7          1           0        2.073646    1.911966    0.206848
      8          1           0        2.246317    0.974975   -1.279719
      9          1           0       -1.471495    0.556064    2.012724
     10          1           0       -1.778145    2.009821   -0.020082
     11          1           0       -0.455301    2.464348    1.042780
     12          1           0       -0.188511    1.001411   -1.636939
     13          1           0        0.292831    2.655062   -1.285376
     14          1           0        0.867886    0.476999    2.317307
     15          8           0        2.383581   -1.002189    0.295475
     16          6           0       -1.730547   -0.722017    0.357862
     17          1           0       -1.852418   -1.566283    1.050645
     18          1           0       -2.739950   -0.336232    0.130069
     19          6           0       -1.769824   -1.521876   -1.847323
     20          7           0       -1.067710   -1.252770   -0.825910
     21          1           0       -2.857038   -1.352784   -1.899137
     22          1           0       -1.287613   -1.944323   -2.729895
     23          1           0        0.444035   -1.185912    1.901980
 ---------------------------------------------------------------------

 Alpha  occ. eigenvalues --  -19.13513 -14.35216 -10.27093 -10.23965 -10.22548
 Alpha  occ. eigenvalues --  -10.20921 -10.19590 -10.19387 -10.19235 -10.19115
 Alpha  occ. eigenvalues --   -1.03219  -0.93644  -0.83727  -0.77368  -0.73192
 Alpha  occ. eigenvalues --   -0.70653  -0.63171  -0.60338  -0.57111  -0.52652
 Alpha  occ. eigenvalues --   -0.49326  -0.48489  -0.47211  -0.45816  -0.44716
 Alpha  occ. eigenvalues --   -0.43752  -0.42268  -0.40831  -0.39751  -0.38650
 Alpha  occ. eigenvalues --   -0.36081  -0.35313  -0.34409  -0.33139  -0.32420
 Alpha  occ. eigenvalues --   -0.30367  -0.26751  -0.23741
 Alpha virt. eigenvalues --   -0.03852  -0.01867  -0.00138   0.01356   0.01845
 Alpha virt. eigenvalues --    0.02361   0.03379   0.04185   0.04603   0.05178
 Alpha virt. eigenvalues --    0.05336   0.06838   0.07324   0.07954   0.08582

 Mulliken charges:
               1
     1  C   -0.335948
     2  C    0.254741
     3  C   -0.383741
     4  C    0.292717
     5  C   -0.476275
     6  C   -0.107256
     7  H    0.159577
     8  H    0.165202
     9  H    0.128296
    10  H    0.132805
    11  H    0.141014
    12  H    0.157968
    13  H    0.134328
    14  H    0.162848
    15  O   -0.425496
    16  C   -0.468398
    17  H    0.155190
    18  H    0.115373
    19  C   -0.086518
    20  N   -0.125258
    21  H    0.108018
    22  H    0.136816
    23  H    0.163996
 Sum of Mulliken charges =  -0.00000

 Dipole moment (field-independent basis, Debye):
    X=             -3.9583    Y=              2.3827    Z=              0.0338  Tot=              4.6202
 Quadrupole moment (field-independent basis, Debye-Ang):
   XX=            -66.4327   YY=            -63.3523   ZZ=            -56.8938
   XY=              8.0315   XZ=              1.2607   YZ=              1.7276

  Exact polarizability:   0.000   0.000   0.000   0.000   0.000   0.000
 Approx polarizability: 144.624  -8.344 134.728   5.207   7.111 146.422

 Normal termination of Gaussian 16 at Sun Apr 14 23:14:17 2019.
