 Gaussian 16, Revision A.03,
 Gaussian 16:  ES64L-G16RevA.03 25-Dec-2016

 ----------------------------------------------------------------------
 #B3LYP/6-31+G(d,p) IRC(CalcAll,Reverse,StepSize=5,LQA,MaxPoints=200,Ma
 xCycles=100) Nosymm
 ----------------------------------------------------------------------

 ---
 IRC
 ---
 Symbolic Z-matrix:
 Charge =  0 Multiplicity = 1

 SCF Done:  E(RB3LYP) =  -442.511930514     A.U. after   18 cycles
 SCF Done:  E(RB3LYP) =  -442.511973548     A.U. after   14 cycles
 SCF Done:  E(RB3LYP) =  -442.512110870     A.U. after   15 cycles
 SCF Done:  E(RB3LYP) =  -442.512351425     A.U. after   14 cycles
 SCF Done:  E(RB3LYP) =  -442.512704819     A.U. after   14 cycles
 SCF Done:  E(RB3LYP) =  -442.513179972     A.U. after   14 cycles
 SCF Done:  E(RB3LYP) =  -442.513785163     A.U. after   14 cycles
 SCF Done:  E(RB3LYP) =  -442.514527788     A.U. after   14 cycles
 SCF Done:  E(RB3LYP) =  -442.515414083     A.U. after   14 cycles
 SCF Done:  E(RB3LYP) =  -442.516448859     A.U. after   14 cycles
 SCF Done:  E(RB3LYP) =  -442.668646446     A.U. after   10 cycles
 SCF Done:  E(RB3LYP) =  -442.668749768     A.U. after   10 cycles
 SCF Done:  E(RB3LYP) =  -442.668854435     A.U. after   10 cycles
 SCF Done:  E(RB3LYP) =  -442.668960305     A.U. after   10 cycles
 SCF Done:  E(RB3LYP) =  -442.669067221     A.U. after   10 cycles
 SCF Done:  E(RB3LYP) =  -442.669175012     A.U. after   10 cycles
 SCF Done:  E(RB3LYP) =  -442.669283495     A.U. after   10 cycles
 SCF Done:  E(RB3LYP) =  -442.669392475     A.U. after   10 cycles
 SCF Done:  E(RB3LYP) =  -442.669501752     A.U. after   10 cycles
 SCF Done:  E(RB3LYP) =  -442.669611119     A.U. after   10 cycles

                          Input orientation:
 ---------------------------------------------------------------------
 Center     Atomic      Atomic             Coordinates (Angstroms)
 Number     Number       Type             X           Y           Z
 ---------------------------------------------------------------------
      1          6           0        1.258960    0.830236   -1.085273
      2          6           0        1.341683   -0.490114   -0.306812
      3          6           0       -0.328079   -0.751662    1.385662
      4          6           0       -1.308797    0.390188    1.049570
      5          6           0       -0.589137    1.695667    0.613116
      6          6           0        0.027283    1.730026   -0.807735
      7          1           0        2.182519    1.351318   -0.816944
      8          1           0        1.336831    0.628815   -2.161534
      9          1           0       -1.955179    0.617958    1.905855
     10          1           0       -1.325307    2.508587    0.654699
     11          1           0        0.181274    1.946761    1.355911
     12          1           0       -0.762049    1.524620   -1.538234
     13          1           0        0.336478    2.763145   -1.006192
     14          1           0        0.516829   -0.461605    2.014558
     15          8           0        2.417110   -0.887108    0.105170
     16          6           0       -2.103109   -0.254887   -0.106229
     17          1           0       -2.888203   -0.905531    0.293235
     18          1           0       -2.589681    0.477936   -0.757510
     19          6           0       -1.027110   -1.101514   -0.849511
     20          7           0        0.148764   -1.178232    0.046196
     21          1           0       -1.383951   -2.120161   -1.036500
     22          1           0       -0.743680   -0.683306   -1.819258
     23          1           0       -0.848665   -1.583189    1.877473
 ---------------------------------------------------------------------

 Alpha  occ. eigenvalues --  -19.13782 -14.34527 -10.29611 -10.22440 -10.22390
 Alpha  occ. eigenvalues --  -10.20476 -10.20323 -10.20241 -10.19990 -10.19811
 Alpha  occ. eigenvalues --   -1.04741  -0.94213  -0.81286  -0.78928  -0.74489
 Alpha  occ. eigenvalues --   -0.69665  -0.65368  -0.61834  -0.56283  -0.54406
 Alpha  occ. eigenvalues --   -0.51041  -0.48827  -0.48016  -0.45082  -0.43930
 Alpha  occ. eigenvalues --   -0.43322  -0.41631  -0.40973  -0.40060  -0.37746
 Alpha  occ. eigenvalues --   -0.36945  -0.35992  -0.34728  -0.34039  -0.33579
 Alpha  occ. eigenvalues --   -0.32348  -0.25811  -0.23572
 Alpha virt. eigenvalues --   -0.01953  -0.00660   0.00738   0.01266   0.02029
 Alpha virt. eigenvalues --    0.03547   0.03697   0.04226   0.04660   0.05235
 Alpha virt. eigenvalues --    0.06918   0.07933   0.08323   0.08548   0.09047

 Mulliken charges:
               1
     1  C   -0.163568
     2  C    0.000813
     3  C   -0.318424
     4  C    0.159754
     5  C   -0.321853
     6  C   -0.206587
     7  H    0.179303
     8  H    0.168496
     9  H    0.128935
    10  H    0.139334
    11  H    0.143233
    12  H    0.133946
    13  H    0.143913
    14  H    0.158585
    15  O   -0.389386
    16  C   -0.449644
    17  H    0.148266
    18  H    0.144777
    19  C   -0.119957
    20  N   -0.108577
    21  H    0.149876
    22  H    0.134349
    23  H    0.144417
 Sum of Mulliken charges =  -0.00000

 Dipole moment (field-independent basis, Debye):
    X=             -3.7161    Y=              2.3685    Z=             -0.6850  Tot=              4.4597
 Quadrupole moment (field-independent basis, Debye-Ang):
   XX=            -69.8482   YY=            -63.7916   ZZ=            -58.1296
   XY=              5.9824   XZ=             -1.7828   YZ=              0.2023

  Exact polarizability:   0.000   0.000   0.000   0.000   0.000   0.000
 Approx polarizability: 151.591  -0.920 129.014   2.599  -4.121 131.431

 Normal termination of Gaussian 16 at Sun Apr 14 21:57:23 2019.
