 Gaussian 16, Revision A.03,
 Gaussian 16:  ES64L-G16RevA.03 25-Dec-2016

 ----------------------------------------------------------
 #B3LYP/6-31+G(d,p) OPT(TS,CalcFC,Noeigentest) Freq=hpmodes
 ----------------------------------------------------------

 reoptimize TS2 after reorder atomic indices in order to compare with T
 S1, and also shift and rotate TS2
 ----------------------------------------------------------------------
 Symbolic Z-matrix:
 Charge =  0 Multiplicity = 1

 SCF Done:  E(RB3LYP) =  -442.547257222     A.U. after   20 cycles
 SCF Done:  E(RB3LYP) =  -442.547257523     A.U. after   11 cycles
 Optimization completed.
    -- Stationary point found.
 Normal termination of Gaussian 16 at Thu Apr 11 20:04:28 2019.

 ----------------------------------------------------------------------
 #N Geom=AllCheck Guess=TCheck SCRF=Check GenChk RB3LYP/6-31+G(d,p) Fre
 q
 ----------------------------------------------------------------------

 ----------------------------------------------------------------------
 reoptimize TS2 after reorder atomic indices in order to compare with T
 S1, and also shift and rotate TS2
 ----------------------------------------------------------------------
 Charge =  0 Multiplicity = 1

                         Standard orientation:
 ---------------------------------------------------------------------
 Center     Atomic      Atomic             Coordinates (Angstroms)
 Number     Number       Type             X           Y           Z
 ---------------------------------------------------------------------
      1          6           0        0.844947    1.306264   -0.661152
      2          6           0        1.277992   -0.155579    0.069778
      3          6           0        0.273644   -0.135835    1.399278
      4          6           0       -1.183682   -0.091069    0.970561
      5          6           0       -1.517975    1.263992    0.317187
      6          6           0       -0.629670    1.571579   -0.902124
      7          1           0        1.278403    1.997021    0.062327
      8          1           0        1.440661    1.326269   -1.574097
      9          1           0       -1.777978   -0.165960    1.895033
     10          1           0       -2.574391    1.294363    0.026499
     11          1           0       -1.376502    2.048308    1.072412
     12          1           0       -0.990766    1.046452   -1.790746
     13          1           0       -0.716650    2.639662   -1.148455
     14          1           0        0.599664    0.738243    1.962506
     15          8           0        2.480572   -0.029610    0.499829
     16          6           0       -1.492365   -1.317559    0.109231
     17          1           0       -1.449885   -2.214571    0.738315
     18          1           0       -2.504086   -1.268955   -0.309502
     19          6           0       -0.465754   -1.491954   -1.047291
     20          7           0        0.903731   -1.213588   -0.726793
     21          1           0       -0.512817   -2.516776   -1.434048
     22          1           0       -0.769924   -0.852035   -1.892786
     23          1           0        0.540748   -1.039060    1.948645
 ---------------------------------------------------------------------

 SCF Done:  E(RB3LYP) =  -442.547257523     A.U. after    1 cycles

 The electronic state is 1-A.
 Alpha  occ. eigenvalues --  -19.09545 -14.35269 -10.27946 -10.23422 -10.23234
 Alpha  occ. eigenvalues --  -10.23227 -10.22151 -10.21423 -10.21168 -10.21107
 Alpha  occ. eigenvalues --   -1.00022  -0.90618  -0.84332  -0.79448  -0.75118
 Alpha  occ. eigenvalues --   -0.71392  -0.65951  -0.62397  -0.58872  -0.53577
 Alpha  occ. eigenvalues --   -0.50649  -0.48412  -0.47095  -0.45867  -0.45163
 Alpha  occ. eigenvalues --   -0.43954  -0.42563  -0.42160  -0.39584  -0.38598
 Alpha  occ. eigenvalues --   -0.37270  -0.37163  -0.35272  -0.34223  -0.33924
 Alpha  occ. eigenvalues --   -0.25947  -0.22869  -0.22549
 Alpha virt. eigenvalues --   -0.14083  -0.01439   0.00341   0.00781   0.01905
 Alpha virt. eigenvalues --    0.03204   0.03356   0.04096   0.04872   0.05154
 Alpha virt. eigenvalues --    0.07018   0.07576   0.07888   0.08264   0.09014

 Mulliken charges:
               1
     1  C   -0.108240
     2  C   -0.540455
     3  C   -0.180263
     4  C    0.276146
     5  C   -0.474111
     6  C   -0.130006
     7  H    0.189181
     8  H    0.180723
     9  H    0.148249
    10  H    0.142178
    11  H    0.146440
    12  H    0.136736
    13  H    0.159380
    14  H    0.180755
    15  O   -0.368064
    16  C   -0.473837
    17  H    0.156522
    18  H    0.145470
    19  C   -0.132256
    20  N    0.065343
    21  H    0.151729
    22  H    0.141631
    23  H    0.186752
 Sum of Mulliken charges =  -0.00000

 Dipole moment (field-independent basis, Debye):
    X=             -6.3363    Y=              1.7252    Z=             -0.1719  Tot=              6.5692
 Quadrupole moment (field-independent basis, Debye-Ang):
   XX=            -76.2247   YY=            -59.4961   ZZ=            -58.6833
   XY=              4.1755   XZ=             -1.5865   YZ=             -2.0574

  Exact polarizability: 116.508   7.402 110.024   6.274   4.661 100.329
 Approx polarizability: 204.420  39.284 192.633  43.245  40.312 190.269

 ******    1 imaginary frequencies (negative Signs) ******

                      1                      2                      3
                      A                      A                      A
 Frequencies --   -457.2743               146.6486               216.2405
 Red. masses --      7.8083                 2.3676                 2.1779
 Frc consts  --      0.9620                 0.0300                 0.0600
 IR Inten    --     49.9080                 4.3967                 4.7646

                      4                      5                      6
                      A                      A                      A
 Frequencies --    257.7857               290.8413               312.4193
 Red. masses --      4.9159                 4.0052                 2.7710
 Frc consts  --      0.1925                 0.1996                 0.1594
 IR Inten    --     10.8355                 3.0373                 1.8970

                      7                      8                      9
                      A                      A                      A
 Frequencies --    371.0847               394.5844               434.1066
 Red. masses --      2.1498                 2.2664                 4.3739
 Frc consts  --      0.1744                 0.2079                 0.4856
 IR Inten    --      4.2120                 0.2954                15.2907

                     10                     11                     12
                      A                      A                      A
 Frequencies --    458.6495               501.4734               553.8027
 Red. masses --      4.2816                 4.4113                 2.6068
 Frc consts  --      0.5307                 0.6536                 0.4710
 IR Inten    --     17.0563                 9.7799                22.0415

                     13                     14                     15
                      A                      A                      A
 Frequencies --    564.9641               633.9486               721.6834
 Red. masses --      3.9472                 4.6344                 1.8107
 Frc consts  --      0.7423                 1.0974                 0.5556
 IR Inten    --     22.3475                 6.3785                 4.6839

                     16                     17                     18
                      A                      A                      A
 Frequencies --    776.1960               835.1947               854.0100
 Red. masses --      2.9861                 1.6444                 1.9474
 Frc consts  --      1.0600                 0.6758                 0.8368
 IR Inten    --     13.2622                 5.7837                 1.5734

                     19                     20                     21
                      A                      A                      A
 Frequencies --    867.0923               894.1826               909.0005
 Red. masses --      1.8247                 2.7196                 2.5712
 Frc consts  --      0.8083                 1.2812                 1.2518
 IR Inten    --      5.2128                13.2340                 4.7531

                     22                     23                     24
                      A                      A                      A
 Frequencies --    941.0366               953.4762               989.4620
 Red. masses --      2.8897                 1.7517                 1.9939
 Frc consts  --      1.5077                 0.9383                 1.1502
 IR Inten    --     24.5305                 1.4057                18.7159

                     25                     26                     27
                      A                      A                      A
 Frequencies --   1002.7114              1043.0701              1065.9690
 Red. masses --      1.6847                 1.8175                 1.3816
 Frc consts  --      0.9980                 1.1651                 0.9250
 IR Inten    --     12.5702                 2.2216                 9.0821

                     28                     29                     30
                      A                      A                      A
 Frequencies --   1085.1971              1115.8713              1119.6766
 Red. masses --      1.6530                 1.3181                 1.1608
 Frc consts  --      1.1469                 0.9670                 0.8575
 IR Inten    --      1.4176                 3.3531                 5.4089

                     31                     32                     33
                      A                      A                      A
 Frequencies --   1136.6507              1189.4658              1201.3329
 Red. masses --      1.1272                 1.6281                 1.4506
 Frc consts  --      0.8580                 1.3572                 1.2334
 IR Inten    --      8.3285                 6.5291                10.0541

                     34                     35                     36
                      A                      A                      A
 Frequencies --   1244.7689              1263.1471              1274.3360
 Red. masses --      1.6529                 1.1742                 1.2768
 Frc consts  --      1.5089                 1.1038                 1.2217
 IR Inten    --      1.9156                 6.0743                11.7723

                     37                     38                     39
                      A                      A                      A
 Frequencies --   1292.4432              1324.5647              1338.2663
 Red. masses --      1.4038                 1.7849                 1.5942
 Frc consts  --      1.3815                 1.8451                 1.6822
 IR Inten    --      8.5936                10.4919                 3.9930

                     40                     41                     42
                      A                      A                      A
 Frequencies --   1349.4324              1368.9980              1381.6523
 Red. masses --      1.4315                 1.5227                 1.3749
 Frc consts  --      1.5358                 1.6814                 1.5463
 IR Inten    --      0.3621                 6.3981                 7.7989

                     43                     44                     45
                      A                      A                      A
 Frequencies --   1393.8275              1409.6508              1468.2128
 Red. masses --      1.5742                 3.9902                 1.0858
 Frc consts  --      1.8018                 4.6716                 1.3790
 IR Inten    --     28.1947                64.3170                 0.2709

                     46                     47                     48
                      A                      A                      A
 Frequencies --   1481.5136              1488.6463              1493.5763
 Red. masses --      1.1056                 1.1001                 1.0979
 Frc consts  --      1.4298                 1.4364                 1.4430
 IR Inten    --      0.5720                 3.0119                 6.1811

                     49                     50                     51
                      A                      A                      A
 Frequencies --   1507.1604              1519.2175              2967.2532
 Red. masses --      1.0853                 1.1036                 1.0707
 Frc consts  --      1.4525                 1.5007                 5.5542
 IR Inten    --     15.4780                 9.2286                12.7901

                     52                     53                     54
                      A                      A                      A
 Frequencies --   2996.5834              3023.2102              3035.6052
 Red. masses --      1.0819                 1.0712                 1.0651
 Frc consts  --      5.7237                 5.7682                 5.7829
 IR Inten    --      4.4380                13.1642                35.5071

                     55                     56                     57
                      A                      A                      A
 Frequencies --   3043.0132              3054.3653              3073.6670
 Red. masses --      1.0690                 1.0799                 1.0975
 Frc consts  --      5.8321                 5.9356                 6.1087
 IR Inten    --     22.1907                76.7066                16.0195

                     58                     59                     60
                      A                      A                      A
 Frequencies --   3087.2517              3093.2725              3106.6252
 Red. masses --      1.1035                 1.0911                 1.0605
 Frc consts  --      6.1970                 6.1511                 6.0305
 IR Inten    --     15.2528                28.6756                17.2470

                     61                     62                     63
                      A                      A                      A
 Frequencies --   3112.4595              3171.6178              3176.1432
 Red. masses --      1.0586                 1.1101                 1.1101
 Frc consts  --      6.0420                 6.5795                 6.5981
 IR Inten    --     20.2036                 5.8687                 5.5640

 - Thermochemistry -
 -------------------
 Temperature   298.150 Kelvin.  Pressure   1.00000 Atm.
 Atom     1 has atomic number  6 and mass  12.00000

 Molecular mass:   139.09971 amu.
 Principal axes and moments of inertia in atomic units:
                           1         2         3
     Eigenvalues --   980.809631234.558741489.60387
           X            0.99866   0.05171  -0.00294
           Y           -0.05176   0.99842  -0.02178
           Z            0.00181   0.02191   0.99976
 This molecule is an asymmetric top.
 Rotational symmetry number  1.
 Warning -- assumption of classical behavior for rotation
           may cause significant error
 Rotational temperatures (Kelvin)      0.08831     0.07016     0.05815
 Rotational constants (GHZ):           1.84005     1.46185     1.21156
    1 imaginary frequencies ignored.
 Zero-point vibrational energy     522638.4 (Joules/Mol)
                                  124.91357 (Kcal/Mol)
 Warning -- explicit consideration of  12 degrees of freedom as
           vibrations may cause significant error
 Vibrational temperatures:    210.99   311.12   370.90   418.46   449.50
          (Kelvin)            533.91   567.72   624.58   659.89   721.51
                              796.80   812.86   912.11  1038.34  1116.77
                             1201.66  1228.73  1247.55  1286.53  1307.85
                             1353.94  1371.84  1423.62  1442.68  1500.75
                             1533.69  1561.36  1605.49  1610.96  1635.39
                             1711.38  1728.45  1790.94  1817.39  1833.49
                             1859.54  1905.75  1925.47  1941.53  1969.68
                             1987.89  2005.41  2028.17  2112.43  2131.57
                             2141.83  2148.92  2168.47  2185.82  4269.22
                             4311.42  4349.73  4367.56  4378.22  4394.55
                             4422.32  4441.87  4450.53  4469.74  4478.14
                             4563.25  4569.76

 Zero-point correction=                           0.199062 (Hartree/Particle)
 Thermal correction to Energy=                    0.207299
 Thermal correction to Enthalpy=                  0.208243
 Thermal correction to Gibbs Free Energy=         0.166819
 Sum of electronic and zero-point Energies=           -442.348195
 Sum of electronic and thermal Energies=              -442.339959
 Sum of electronic and thermal Enthalpies=            -442.339015
 Sum of electronic and thermal Free Energies=         -442.380439

                     E (Thermal)             CV                S
                      KCal/Mol        Cal/Mol-Kelvin    Cal/Mol-Kelvin
 Total                  130.082             34.879             87.184
 Electronic               0.000              0.000              0.000
 Translational            0.889              2.981             40.702
 Rotational               0.889              2.981             28.980
 Vibrational            128.304             28.918             17.503
 Vibration     1          0.617              1.906              2.715
 Vibration     2          0.645              1.816              1.990
 Vibration     3          0.667              1.750              1.677
 Vibration     4          0.687              1.691              1.469
 Vibration     5          0.701              1.650              1.349
 Vibration     6          0.743              1.532              1.075
 Vibration     7          0.762              1.482              0.983
 Vibration     8          0.795              1.396              0.845
 Vibration     9          0.817              1.342              0.770
 Vibration    10          0.857              1.247              0.654
 Vibration    11          0.909              1.131              0.536
 Vibration    12          0.921              1.107              0.514

 Optimization completed.
    -- Stationary point found.
 Normal termination of Gaussian 16 at Thu Apr 11 21:18:32 2019.
