 Gaussian 16, Revision A.03,
 Gaussian 16:  ES64L-G16RevA.03 25-Dec-2016

 -----------------------------------
 #B3LYP/6-31+G(d,p) OPT Freq=hpmodes
 -----------------------------------

 --------------------------------------------------------------
 the last point of TS1 reverse direction in its IRC calculation
 --------------------------------------------------------------
 Symbolic Z-matrix:
 Charge =  0 Multiplicity = 1

 SCF Done:  E(RB3LYP) =  -442.663696948     A.U. after   13 cycles
 SCF Done:  E(RB3LYP) =  -442.663730708     A.U. after   11 cycles
 SCF Done:  E(RB3LYP) =  -442.663716675     A.U. after   10 cycles
 SCF Done:  E(RB3LYP) =  -442.663750943     A.U. after   10 cycles
 SCF Done:  E(RB3LYP) =  -442.663750895     A.U. after   10 cycles
 SCF Done:  E(RB3LYP) =  -442.663752438     A.U. after    9 cycles
 SCF Done:  E(RB3LYP) =  -442.663752580     A.U. after    8 cycles
 Optimization completed.
    -- Stationary point found.
 Normal termination of Gaussian 16 at Mon Apr 15 11:26:02 2019.

 ----------------------------------------------------------------------
 #N Geom=AllCheck Guess=TCheck SCRF=Check GenChk RB3LYP/6-31+G(d,p) Fre
 q
 ----------------------------------------------------------------------

 Structure from the checkpoint file:  "/scratch/Grace/g03/Gau-1439.chk"
 --------------------------------------------------------------
 the last point of TS1 reverse direction in its IRC calculation
 --------------------------------------------------------------
 Charge =  0 Multiplicity = 1

                         Standard orientation:
 ---------------------------------------------------------------------
 Center     Atomic      Atomic             Coordinates (Angstroms)
 Number     Number       Type             X           Y           Z
 ---------------------------------------------------------------------
      1          6           0        1.752815    0.299615   -1.003911
      2          6           0        1.504830   -0.742747    0.076754
      3          6           0        0.848045   -0.234338    1.353914
      4          6           0       -0.326063    0.754337    1.151173
      5          6           0        0.027952    1.823591    0.093899
      6          6           0        0.557168    1.243540   -1.227992
      7          1           0        2.620646    0.888870   -0.666772
      8          1           0        2.049733   -0.216617   -1.920991
      9          1           0       -0.476505    1.278807    2.104941
     10          1           0       -0.849632    2.454561   -0.098002
     11          1           0        0.794009    2.486838    0.520771
     12          1           0       -0.236532    0.693196   -1.740371
     13          1           0        0.858040    2.061184   -1.894104
     14          1           0        1.645248    0.288827    1.904396
     15          8           0        1.896909   -1.891878   -0.029692
     16          6           0       -1.663534    0.028797    0.900215
     17          1           0       -1.847739   -0.624578    1.764343
     18          1           0       -2.486151    0.764905    0.864400
     19          6           0       -2.690149   -0.873907   -1.003380
     20          7           0       -1.652792   -0.832578   -0.274431
     21          1           0       -3.592800   -0.273177   -0.809505
     22          1           0       -2.706779   -1.533955   -1.871659
     23          1           0        0.556361   -1.099127    1.957082
 ---------------------------------------------------------------------

 SCF Done:  E(RB3LYP) =  -442.663752580     A.U. after    1 cycles

 The electronic state is 1-A.
 Alpha  occ. eigenvalues --  -19.13608 -14.35226 -10.27144 -10.23970 -10.22544
 Alpha  occ. eigenvalues --  -10.20960 -10.19609 -10.19437 -10.19235 -10.19141
 Alpha  occ. eigenvalues --   -1.03297  -0.93647  -0.83739  -0.77400  -0.73242
 Alpha  occ. eigenvalues --   -0.70645  -0.63190  -0.60362  -0.57125  -0.52673
 Alpha  occ. eigenvalues --   -0.49315  -0.48509  -0.47252  -0.45832  -0.44722
 Alpha  occ. eigenvalues --   -0.43853  -0.42296  -0.40773  -0.39762  -0.38682
 Alpha  occ. eigenvalues --   -0.36097  -0.35325  -0.34466  -0.33164  -0.32447
 Alpha  occ. eigenvalues --   -0.30385  -0.26785  -0.23803
 Alpha virt. eigenvalues --   -0.03818  -0.01964  -0.00137   0.01350   0.01821
 Alpha virt. eigenvalues --    0.02362   0.03364   0.04148   0.04610   0.05180
 Alpha virt. eigenvalues --    0.05329   0.06827   0.07265   0.07977   0.08587

 Mulliken charges:
               1
     1  C   -0.327819
     2  C    0.247556
     3  C   -0.379115
     4  C    0.294252
     5  C   -0.472172
     6  C   -0.117559
     7  H    0.159413
     8  H    0.165295
     9  H    0.128433
    10  H    0.132678
    11  H    0.141095
    12  H    0.160312
    13  H    0.134627
    14  H    0.163251
    15  O   -0.427241
    16  C   -0.471274
    17  H    0.154540
    18  H    0.114907
    19  C   -0.086967
    20  N   -0.122272
    21  H    0.108020
    22  H    0.136624
    23  H    0.163416
 Sum of Mulliken charges =  -0.00000

 Dipole moment (field-independent basis, Debye):
    X=             -2.6346    Y=              3.7999    Z=              0.4381  Tot=              4.6446
 Quadrupole moment (field-independent basis, Debye-Ang):
   XX=            -59.2208   YY=            -69.8804   ZZ=            -58.1791
   XY=              7.3145   XZ=              1.6309   YZ=              0.3008

  Exact polarizability: 106.897  -2.904  98.640   3.578   3.484  98.591
 Approx polarizability: 142.966  -7.074 143.425   9.515   6.455 139.387

                      1                      2                      3
                      A                      A                      A
 Frequencies --     58.8850                95.7116               100.6627
 Red. masses --      4.2103                 3.2021                 3.4152
 Frc consts  --      0.0086                 0.0173                 0.0204
 IR Inten    --      0.2802                 2.2281                 4.0661

                      4                      5                      6
                      A                      A                      A
 Frequencies --    116.3243               218.0127               257.7060
 Red. masses --      2.9710                 3.0693                 2.2879
 Frc consts  --      0.0237                 0.0860                 0.0895
 IR Inten    --      7.3104                 8.9129                 1.1945

                      7                      8                      9
                      A                      A                      A
 Frequencies --    348.5989               363.8732               416.3566
 Red. masses --      2.3753                 2.4963                 2.3052
 Frc consts  --      0.1701                 0.1947                 0.2354
 IR Inten    --      0.4986                 2.4774                 1.7331

                     10                     11                     12
                      A                      A                      A
 Frequencies --    445.2892               477.3765               486.0685
 Red. masses --      2.6987                 1.9824                 3.6381
 Frc consts  --      0.3153                 0.2662                 0.5064
 IR Inten    --      3.0553                 4.5465                 7.5233

                     13                     14                     15
                      A                      A                      A
 Frequencies --    596.3583               676.9187               701.3031
 Red. masses --      3.5250                 1.3297                 3.0008
 Frc consts  --      0.7386                 0.3590                 0.8696
 IR Inten    --      0.6830                 1.9563                 1.5826

                     16                     17                     18
                      A                      A                      A
 Frequencies --    743.8953               798.0950               832.6624
 Red. masses --      2.0337                 2.4769                 1.8640
 Frc consts  --      0.6631                 0.9295                 0.7614
 IR Inten    --      7.6716                 1.1830                 2.8387

                     19                     20                     21
                      A                      A                      A
 Frequencies --    875.7821               891.8421               941.8197
 Red. masses --      2.5643                 1.6073                 2.1264
 Frc consts  --      1.1588                 0.7532                 1.1113
 IR Inten    --      1.7107                 5.0192                11.5269

                     22                     23                     24
                      A                      A                      A
 Frequencies --    967.4250               994.2295              1025.0955
 Red. masses --      2.0127                 2.8977                 2.2025
 Frc consts  --      1.1099                 1.6876                 1.3636
 IR Inten    --      4.5577                 2.6322                 4.4582

                     25                     26                     27
                      A                      A                      A
 Frequencies --   1050.5740              1060.3939              1089.4342
 Red. masses --      1.7477                 1.3594                 1.5054
 Frc consts  --      1.1365                 0.9006                 1.0527
 IR Inten    --      1.8412                19.4235                 4.1005

                     28                     29                     30
                      A                      A                      A
 Frequencies --   1121.8835              1126.2804              1176.9936
 Red. masses --      1.5529                 1.6704                 1.5889
 Frc consts  --      1.1515                 1.2484                 1.2969
 IR Inten    --      6.7761                10.4648                10.0222

                     31                     32                     33
                      A                      A                      A
 Frequencies --   1213.7220              1243.6850              1247.5953
 Red. masses --      1.3642                 1.8085                 1.3214
 Frc consts  --      1.1841                 1.6481                 1.2118
 IR Inten    --      6.6852                30.6491                 3.3879

                     34                     35                     36
                      A                      A                      A
 Frequencies --   1271.2822              1276.0654              1324.4120
 Red. masses --      1.1907                 1.2951                 1.5327
 Frc consts  --      1.1338                 1.2425                 1.5840
 IR Inten    --      6.6919                 1.8271                 2.6529

                     37                     38                     39
                      A                      A                      A
 Frequencies --   1347.7002              1360.3613              1372.0505
 Red. masses --      1.5730                 1.6060                 1.3739
 Frc consts  --      1.6834                 1.7511                 1.5238
 IR Inten    --     11.1424                 1.8130                 7.1700

                     40                     41                     42
                      A                      A                      A
 Frequencies --   1374.5486              1394.7937              1402.3074
 Red. masses --      1.4902                 1.4101                 1.3376
 Frc consts  --      1.6589                 1.6163                 1.5498
 IR Inten    --      3.0284                 4.7954                 5.6913

                     43                     44                     45
                      A                      A                      A
 Frequencies --   1458.8569              1467.7983              1476.3272
 Red. masses --      1.0928                 1.0844                 1.0835
 Frc consts  --      1.3703                 1.3765                 1.3914
 IR Inten    --     12.2305                12.1227                 7.2209

                     46                     47                     48
                      A                      A                      A
 Frequencies --   1495.0313              1501.2572              1505.7068
 Red. masses --      1.0852                 1.1579                 1.0953
 Frc consts  --      1.4290                 1.5376                 1.4631
 IR Inten    --      6.9992                14.6350                 7.0823

                     49                     50                     51
                      A                      A                      A
 Frequencies --   1737.9652              1788.5638              2957.7507
 Red. masses --      6.3721                11.2393                 1.0673
 Frc consts  --     11.3400                21.1836                 5.5012
 IR Inten    --     27.9902               227.2607                48.2808

                     52                     53                     54
                      A                      A                      A
 Frequencies --   2998.2562              3003.1074              3009.1931
 Red. masses --      1.0651                 1.0697                 1.0724
 Frc consts  --      5.6414                 5.6842                 5.7212
 IR Inten    --     73.9111                 2.8133                26.0270

                     55                     56                     57
                      A                      A                      A
 Frequencies --   3012.0201              3028.1357              3040.3562
 Red. masses --      1.0664                 1.0802                 1.0920
 Frc consts  --      5.7001                 5.8356                 5.9474
 IR Inten    --     19.5699                70.8468                28.8390

                     58                     59                     60
                      A                      A                      A
 Frequencies --   3046.6200              3056.7937              3104.4182
 Red. masses --      1.0721                 1.0960                 1.0933
 Frc consts  --      5.8632                 6.0338                 6.2079
 IR Inten    --     31.6946                53.8108                23.7780

                     61                     62                     63
                      A                      A                      A
 Frequencies --   3105.1802              3114.4838              3153.8657
 Red. masses --      1.0933                 1.0953                 1.1035
 Frc consts  --      6.2112                 6.2597                 6.4673
 IR Inten    --      9.9728                25.8560                23.5245

 - Thermochemistry -
 -------------------
 Temperature   298.150 Kelvin.  Pressure   1.00000 Atm.
 Atom     1 has atomic number  6 and mass  12.00000

 Molecular mass:   139.09971 amu.
 Principal axes and moments of inertia in atomic units:
                           1         2         3
     Eigenvalues --  1056.152221652.276121834.84741
           X            0.99918   0.04047  -0.00314
           Y           -0.04050   0.99913  -0.00977
           Z            0.00274   0.00989   0.99995
 This molecule is an asymmetric top.
 Rotational symmetry number  1.
 Warning -- assumption of classical behavior for rotation
           may cause significant error
 Rotational temperatures (Kelvin)      0.08201     0.05242     0.04720
 Rotational constants (GHZ):           1.70879     1.09228     0.98359
 Zero-point vibrational energy     526034.3 (Joules/Mol)
                                  125.72521 (Kcal/Mol)
 Warning -- explicit consideration of  13 degrees of freedom as
           vibrations may cause significant error
 Vibrational temperatures:     84.72   137.71   144.83   167.36   313.67
          (Kelvin)            370.78   501.56   523.53   599.04   640.67
                              686.84   699.34   858.03   973.94  1009.02
                             1070.30  1148.28  1198.02  1260.06  1283.16
                             1355.07  1391.91  1430.47  1474.88  1511.54
                             1525.67  1567.45  1614.14  1620.47  1693.43
                             1746.28  1789.39  1795.01  1829.09  1835.97
                             1905.53  1939.04  1957.26  1974.07  1977.67
                             2006.80  2017.61  2098.97  2111.83  2124.11
                             2151.02  2159.97  2166.38  2500.54  2573.34
                             4255.54  4313.82  4320.80  4329.56  4333.63
                             4356.81  4374.39  4383.41  4398.04  4466.57
                             4467.66  4481.05  4537.71

 Zero-point correction=                           0.200356 (Hartree/Particle)
 Thermal correction to Energy=                    0.210167
 Thermal correction to Enthalpy=                  0.211112
 Thermal correction to Gibbs Free Energy=         0.164947
 Sum of electronic and zero-point Energies=           -442.463397
 Sum of electronic and thermal Energies=              -442.453585
 Sum of electronic and thermal Enthalpies=            -442.452641
 Sum of electronic and thermal Free Energies=         -442.498805

                     E (Thermal)             CV                S
                      KCal/Mol        Cal/Mol-Kelvin    Cal/Mol-Kelvin
 Total                  131.882             37.134             97.161
 Electronic               0.000              0.000              0.000
 Translational            0.889              2.981             40.702
 Rotational               0.889              2.981             29.550
 Vibrational            130.105             31.173             26.910
 Vibration     1          0.596              1.974              4.494
 Vibration     2          0.603              1.952              3.540
 Vibration     3          0.604              1.949              3.441
 Vibration     4          0.608              1.936              3.161
 Vibration     5          0.646              1.814              1.976
 Vibration     6          0.667              1.750              1.677
 Vibration     7          0.726              1.578              1.173
 Vibration     8          0.737              1.547              1.106
 Vibration     9          0.780              1.435              0.904
 Vibration    10          0.805              1.371              0.810
 Vibration    11          0.834              1.300              0.717
 Vibration    12          0.842              1.281              0.694
 Vibration    13          0.954              1.040              0.456

                           ! Non-Optimized Parameters !
 Normal termination of Gaussian 16 at Mon Apr 15 12:24:38 2019.
