 Gaussian 16, Revision A.03,
 Gaussian 16:  ES64L-G16RevA.03 25-Dec-2016

 ----------------------------------------------------------------------
 #B3LYP/6-31+G(d,p) IRC(CalcFC,Reverse,StepSize=2,LQA,MaxPoints=500,Max
 Cycles=100) Nosymm
 ----------------------------------------------------------------------

 ---
 IRC
 ---
 Symbolic Z-matrix:
 Charge =  0 Multiplicity = 1

 SCF Done:  E(RB3LYP) =  -442.547255270     A.U. after   20 cycles
 SCF Done:  E(RB3LYP) =  -442.547267956     A.U. after   13 cycles
 SCF Done:  E(RB3LYP) =  -442.547305792     A.U. after   13 cycles
 SCF Done:  E(RB3LYP) =  -442.547368644     A.U. after   13 cycles
 SCF Done:  E(RB3LYP) =  -442.547456263     A.U. after   13 cycles
 SCF Done:  E(RB3LYP) =  -442.547568242     A.U. after   13 cycles
 SCF Done:  E(RB3LYP) =  -442.547704041     A.U. after   13 cycles
 SCF Done:  E(RB3LYP) =  -442.547862997     A.U. after   13 cycles
 SCF Done:  E(RB3LYP) =  -442.548044341     A.U. after   13 cycles
 SCF Done:  E(RB3LYP) =  -442.548247215     A.U. after   13 cycles
 SCF Done:  E(RB3LYP) =  -442.680524234     A.U. after    9 cycles
 SCF Done:  E(RB3LYP) =  -442.680531345     A.U. after    9 cycles
 SCF Done:  E(RB3LYP) =  -442.680537142     A.U. after    9 cycles
 SCF Done:  E(RB3LYP) =  -442.680541954     A.U. after    9 cycles
 SCF Done:  E(RB3LYP) =  -442.680544949     A.U. after    9 cycles
 SCF Done:  E(RB3LYP) =  -442.680546940     A.U. after    9 cycles
 SCF Done:  E(RB3LYP) =  -442.680547314     A.U. after    9 cycles
 SCF Done:  E(RB3LYP) =  -442.680547191     A.U. after    9 cycles
 SCF Done:  E(RB3LYP) =  -442.680545636     A.U. after    9 cycles
 SCF Done:  E(RB3LYP) =  -442.680548814     A.U. after    9 cycles

                          Input orientation:
 ---------------------------------------------------------------------
 Center     Atomic      Atomic             Coordinates (Angstroms)
 Number     Number       Type             X           Y           Z
 ---------------------------------------------------------------------
      1          6           0        0.768097    0.581924   -1.504739
      2          6           0        0.977136   -0.823509    0.405604
      3          6           0       -0.029509   -0.748714    1.543792
      4          6           0       -1.047970    0.347262    1.120765
      5          6           0       -0.343718    1.652630    0.610580
      6          6           0       -0.066064    1.745968   -0.914597
      7          1           0        1.835285    0.724542   -1.325491
      8          1           0        0.619905    0.509096   -2.587691
      9          1           0       -1.652341    0.613126    1.995423
     10          1           0       -0.982162    2.505517    0.870065
     11          1           0        0.591715    1.795931    1.166941
     12          1           0       -1.025161    1.807620   -1.443298
     13          1           0        0.447469    2.692784   -1.122864
     14          1           0        0.519308   -0.495214    2.453918
     15          8           0        2.185508   -0.777997    0.577420
     16          6           0       -1.943188   -0.273033    0.037136
     17          1           0       -2.653824   -0.970949    0.495653
     18          1           0       -2.537050    0.493747   -0.471353
     19          6           0       -1.031708   -1.047571   -0.963983
     20          7           0        0.396023   -0.698540   -0.871677
     21          1           0       -1.114194   -2.124141   -0.785373
     22          1           0       -1.340589   -0.883513   -2.000155
     23          1           0       -0.546514   -1.701165    1.718000
 ---------------------------------------------------------------------

 Alpha  occ. eigenvalues --  -19.13152 -14.35233 -10.28985 -10.22789 -10.22231
 Alpha  occ. eigenvalues --  -10.21007 -10.19900 -10.19829 -10.19730 -10.19606
 Alpha  occ. eigenvalues --   -1.04318  -0.94063  -0.82209  -0.78592  -0.74848
 Alpha  occ. eigenvalues --   -0.68255  -0.66640  -0.62440  -0.56191  -0.52687
 Alpha  occ. eigenvalues --   -0.51332  -0.49030  -0.47926  -0.45042  -0.43473
 Alpha  occ. eigenvalues --   -0.42510  -0.41864  -0.41419  -0.40381  -0.39702
 Alpha  occ. eigenvalues --   -0.36242  -0.35632  -0.34551  -0.33575  -0.33022
 Alpha  occ. eigenvalues --   -0.32359  -0.25767  -0.23788
 Alpha virt. eigenvalues --   -0.01229  -0.00650   0.00984   0.01373   0.01929
 Alpha virt. eigenvalues --    0.03607   0.03826   0.04090   0.05162   0.05395
 Alpha virt. eigenvalues --    0.07015   0.07682   0.08030   0.08555   0.09147

 Mulliken charges:
               1
     1  C   -0.239543
     2  C    0.132120
     3  C   -0.292349
     4  C    0.141904
     5  C   -0.324439
     6  C   -0.261284
     7  H    0.175331
     8  H    0.138524
     9  H    0.135009
    10  H    0.140088
    11  H    0.159592
    12  H    0.137698
    13  H    0.142226
    14  H    0.171499
    15  O   -0.440372
    16  C   -0.307577
    17  H    0.143563
    18  H    0.142510
    19  C   -0.243669
    20  N   -0.104468
    21  H    0.149930
    22  H    0.144096
    23  H    0.159613
 Sum of Mulliken charges =  -0.00000

 Dipole moment (field-independent basis, Debye):
    X=             -4.0447    Y=              1.2677    Z=             -0.4263  Tot=              4.2601
 Quadrupole moment (field-independent basis, Debye-Ang):
   XX=            -69.9728   YY=            -60.7079   ZZ=            -59.6640
   XY=              4.8066   XZ=             -1.8585   YZ=             -1.0535

  Exact polarizability:   0.000   0.000   0.000   0.000   0.000   0.000
 Approx polarizability: 149.812   0.895 126.656   6.963  -4.301 136.638

 Normal termination of Gaussian 16 at Sun Apr 14 18:48:05 2019.
